<?xml version="1.0"?>
<VTKFile type="UnstructuredGrid"  version="0.1"  >
<UnstructuredGrid>
<Piece  NumberOfPoints="6201" NumberOfCells="12144">
<Points>
<DataArray  type="Float64"  NumberOfComponents="3"  format="ascii">0 1 0  0 -1 0  1 0 0  -1 0 0  -0.02454122852287776 0.999698818696205 0  -0.04906767432734942 0.9987954562051757 0  -0.07356456359955947 0.9972904566786982 0  -0.098017140329409 0.9951847266722118 0  -0.1224106751990381 0.9924795345987319 0  -0.14673047445516 0.9891765099648109 0  -0.1709618887600765 0.9852776423889802 0  -0.1950903220158731 0.9807852804032812 0  -0.2191012401565635 0.9757021300385973 0  -0.2429801799028944 0.9700312531946366 0  -0.2667127574744887 0.9637760657955532 0  -0.2902846772539959 0.9569403357323504 0  -0.3136817403983533 0.9495281805932144 0  -0.3368898533916172 0.9415440651832365 0  -0.3598950365343229 0.9329927988349955 0  -0.3826834323643665 0.9238795325115864 0  -0.4052413140042221 0.914209755703871 0  -0.4275550934294596 0.9039892931238324 0  -0.4496113296537328 0.8932243011959552 0  -0.4713967368250455 0.881921264348864 0  -0.4928981922288082 0.8700869911092642 0  -0.5141027441922073 0.8577286100008801 0  -0.5349976198860099 0.8448535652503956 0  -0.5555702330184784 0.8314696123032962 0  -0.5758081914166656 0.8175848131524146 0  -0.5956993044911779 0.803207531481576 0  -0.6152315905793139 0.788346427627631 0  -0.634393284162254 0.7730104533638789 0  -0.6531728429523989 0.7572088465076731 0  -0.6715589548456731 0.7409511253561784 0  -0.6895405447357167 0.7242470829527524 0  -0.707106781185206 0.7071067811878892 0  -0.7242470829501997 0.6895405447383979 0  -0.7409511253537779 0.6715589548483216 0  -0.7572088465053896 0.6531728429550462 0  -0.7730104533617177 0.6343932841648875 0  -0.7883464276256243 0.6152315905818851 0  -0.8032075314797054 0.5956993044937002 0  -0.8175848131507105 0.5758081914190851 0  -0.8314696123017388 0.5555702330208091 0  -0.844853565248969 0.5349976198882627 0  -0.8577286099996108 0.514102744194325 0  -0.8700869911081144 0.492898192230838 0  -0.8819212643478147 0.4713967368270084 0  -0.8932243011950445 0.449611329655542 0  -0.9039892931230238 0.4275550934311692 0  -0.9142097557031724 0.4052413140057979 0  -0.9238795325109728 0.3826834323658478 0  -0.9329927988344826 0.3598950365356525 0  -0.9415440651828083 0.336889853392814 0  -0.9495281805928644 0.3136817403994129 0  -0.9569403357320729 0.2902846772549104 0  -0.9637760657953238 0.2667127574753179 0  -0.9700312531944527 0.2429801799036284 0  -0.9757021300384615 0.2191012401571683 0  -0.9807852804031804 0.1950903220163801 0  -0.9852776423889043 0.1709618887605145 0  -0.9891765099647555 0.1467304744555333 0  -0.9924795345986914 0.1224106751993664 0  -0.9951847266721815 0.09801714032971656 0  -0.9972904566786818 0.07356456359978128 0  -0.9987954562051686 0.04906767432749375 0  -0.9996988186962037 0.02454122852293202 0  -0.999698818696205 -0.02454122852287776 0  -0.9987954562051757 -0.04906767432734942 0  -0.9972904566786982 -0.07356456359955947 0  -0.9951847266722118 -0.098017140329409 0  -0.9924795345987319 -0.1224106751990381 0  -0.9891765099648109 -0.14673047445516 0  -0.9852776423889802 -0.1709618887600765 0  -0.9807852804032812 -0.1950903220158731 0  -0.9757021300385973 -0.2191012401565635 0  -0.9700312531946366 -0.2429801799028944 0  -0.9637760657955532 -0.2667127574744887 0  -0.9569403357323504 -0.2902846772539959 0  -0.9495281805932144 -0.3136817403983533 0  -0.9415440651832365 -0.3368898533916172 0  -0.9329927988349955 -0.3598950365343229 0  -0.9238795325115864 -0.3826834323643665 0  -0.914209755703871 -0.4052413140042221 0  -0.9039892931238324 -0.4275550934294596 0  -0.8932243011959552 -0.4496113296537328 0  -0.881921264348864 -0.4713967368250455 0  -0.8700869911092642 -0.4928981922288082 0  -0.8577286100008801 -0.5141027441922073 0  -0.8448535652503956 -0.5349976198860099 0  -0.8314696123032962 -0.5555702330184784 0  -0.8175848131524146 -0.5758081914166656 0  -0.803207531481576 -0.5956993044911779 0  -0.788346427627631 -0.6152315905793139 0  -0.7730104533638789 -0.634393284162254 0  -0.7572088465076731 -0.6531728429523989 0  -0.7409511253561784 -0.6715589548456731 0  -0.7242470829527524 -0.6895405447357167 0  -0.7071067811878892 -0.707106781185206 0  -0.6895405447383979 -0.7242470829501997 0  -0.6715589548483216 -0.7409511253537779 0  -0.6531728429550462 -0.7572088465053896 0  -0.6343932841648875 -0.7730104533617177 0  -0.6152315905818851 -0.7883464276256243 0  -0.5956993044937002 -0.8032075314797054 0  -0.5758081914190851 -0.8175848131507105 0  -0.5555702330208091 -0.8314696123017388 0  -0.5349976198882627 -0.844853565248969 0  -0.514102744194325 -0.8577286099996108 0  -0.492898192230838 -0.8700869911081144 0  -0.4713967368270084 -0.8819212643478147 0  -0.449611329655542 -0.8932243011950445 0  -0.4275550934311692 -0.9039892931230238 0  -0.4052413140057979 -0.9142097557031724 0  -0.3826834323658478 -0.9238795325109728 0  -0.3598950365356525 -0.9329927988344826 0  -0.336889853392814 -0.9415440651828083 0  -0.3136817403994129 -0.9495281805928644 0  -0.2902846772549104 -0.9569403357320729 0  -0.2667127574753179 -0.9637760657953238 0  -0.2429801799036284 -0.9700312531944527 0  -0.2191012401571683 -0.9757021300384615 0  -0.1950903220163801 -0.9807852804031804 0  -0.1709618887605145 -0.9852776423889043 0  -0.1467304744555333 -0.9891765099647555 0  -0.1224106751993664 -0.9924795345986914 0  -0.09801714032971656 -0.9951847266721815 0  -0.07356456359978128 -0.9972904566786818 0  -0.04906767432749375 -0.9987954562051686 0  -0.02454122852293202 -0.9996988186962037 0  0.02454122852287776 -0.999698818696205 0  0.04906767432734942 -0.9987954562051757 0  0.07356456359955947 -0.9972904566786982 0  0.098017140329409 -0.9951847266722118 0  0.1224106751990381 -0.9924795345987319 0  0.14673047445516 -0.9891765099648109 0  0.1709618887600765 -0.9852776423889802 0  0.1950903220158731 -0.9807852804032812 0  0.2191012401565635 -0.9757021300385973 0  0.2429801799028944 -0.9700312531946366 0  0.2667127574744887 -0.9637760657955532 0  0.2902846772539959 -0.9569403357323504 0  0.3136817403983533 -0.9495281805932144 0  0.3368898533916172 -0.9415440651832365 0  0.3598950365343229 -0.9329927988349955 0  0.3826834323643665 -0.9238795325115864 0  0.4052413140042221 -0.914209755703871 0  0.4275550934294596 -0.9039892931238324 0  0.4496113296537328 -0.8932243011959552 0  0.4713967368250455 -0.881921264348864 0  0.4928981922288082 -0.8700869911092642 0  0.5141027441922073 -0.8577286100008801 0  0.5349976198860099 -0.8448535652503956 0  0.5555702330184784 -0.8314696123032962 0  0.5758081914166656 -0.8175848131524146 0  0.5956993044911779 -0.803207531481576 0  0.6152315905793139 -0.788346427627631 0  0.634393284162254 -0.7730104533638789 0  0.6531728429523989 -0.7572088465076731 0  0.6715589548456731 -0.7409511253561784 0  0.6895405447357167 -0.7242470829527524 0  0.707106781185206 -0.7071067811878892 0  0.7242470829501997 -0.6895405447383979 0  0.7409511253537779 -0.6715589548483216 0  0.7572088465053896 -0.6531728429550462 0  0.7730104533617177 -0.6343932841648875 0  0.7883464276256243 -0.6152315905818851 0  0.8032075314797054 -0.5956993044937002 0  0.8175848131507105 -0.5758081914190851 0  0.8314696123017388 -0.5555702330208091 0  0.844853565248969 -0.5349976198882627 0  0.8577286099996108 -0.514102744194325 0  0.8700869911081144 -0.492898192230838 0  0.8819212643478147 -0.4713967368270084 0  0.8932243011950445 -0.449611329655542 0  0.9039892931230238 -0.4275550934311692 0  0.9142097557031724 -0.4052413140057979 0  0.9238795325109728 -0.3826834323658478 0  0.9329927988344826 -0.3598950365356525 0  0.9415440651828083 -0.336889853392814 0  0.9495281805928644 -0.3136817403994129 0  0.9569403357320729 -0.2902846772549104 0  0.9637760657953238 -0.2667127574753179 0  0.9700312531944527 -0.2429801799036284 0  0.9757021300384615 -0.2191012401571683 0  0.9807852804031804 -0.1950903220163801 0  0.9852776423889043 -0.1709618887605145 0  0.9891765099647555 -0.1467304744555333 0  0.9924795345986914 -0.1224106751993664 0  0.9951847266721815 -0.09801714032971656 0  0.9972904566786818 -0.07356456359978128 0  0.9987954562051686 -0.04906767432749375 0  0.9996988186962037 -0.02454122852293202 0  0.999698818696205 0.02454122852287776 0  0.9987954562051757 0.04906767432734942 0  0.9972904566786982 0.07356456359955947 0  0.9951847266722118 0.098017140329409 0  0.9924795345987319 0.1224106751990381 0  0.9891765099648109 0.14673047445516 0  0.9852776423889802 0.1709618887600765 0  0.9807852804032812 0.1950903220158731 0  0.9757021300385973 0.2191012401565635 0  0.9700312531946366 0.2429801799028944 0  0.9637760657955532 0.2667127574744887 0  0.9569403357323504 0.2902846772539959 0  0.9495281805932144 0.3136817403983533 0  0.9415440651832365 0.3368898533916172 0  0.9329927988349955 0.3598950365343229 0  0.9238795325115864 0.3826834323643665 0  0.914209755703871 0.4052413140042221 0  0.9039892931238324 0.4275550934294596 0  0.8932243011959552 0.4496113296537328 0  0.881921264348864 0.4713967368250455 0  0.8700869911092642 0.4928981922288082 0  0.8577286100008801 0.5141027441922073 0  0.8448535652503956 0.5349976198860099 0  0.8314696123032962 0.5555702330184784 0  0.8175848131524146 0.5758081914166656 0  0.803207531481576 0.5956993044911779 0  0.788346427627631 0.6152315905793139 0  0.7730104533638789 0.634393284162254 0  0.7572088465076731 0.6531728429523989 0  0.7409511253561784 0.6715589548456731 0  0.7242470829527524 0.6895405447357167 0  0.7071067811878892 0.707106781185206 0  0.6895405447383979 0.7242470829501997 0  0.6715589548483216 0.7409511253537779 0  0.6531728429550462 0.7572088465053896 0  0.6343932841648875 0.7730104533617177 0  0.6152315905818851 0.7883464276256243 0  0.5956993044937002 0.8032075314797054 0  0.5758081914190851 0.8175848131507105 0  0.5555702330208091 0.8314696123017388 0  0.5349976198882627 0.844853565248969 0  0.514102744194325 0.8577286099996108 0  0.492898192230838 0.8700869911081144 0  0.4713967368270084 
[...]
<PointData  Scalars="f_14"> 
<DataArray  type="Float64"  Name="f_14"  format="ascii">0.0000000000000000e+00  0.0000000000000000e+00  0.0000000000000000e+00  0.0000000000000000e+00  0.0000000000000000e+00  0.0000000000000000e+00  0.0000000000000000e+00  0.0000000000000000e+00  0.0000000000000000e+00  0.0000000000000000e+00  0.0000000000000000e+00  0.0000000000000000e+00  0.0000000000000000e+00  0.0000000000000000e+00  0.0000000000000000e+00  0.0000000000000000e+00  0.0000000000000000e+00  0.0000000000000000e+00  0.0000000000000000e+00  0.0000000000000000e+00  0.0000000000000000e+00  0.0000000000000000e+00  0.0000000000000000e+00  0.0000000000000000e+00  0.0000000000000000e+00  0.0000000000000000e+00  0.0000000000000000e+00  0.0000000000000000e+00  0.0000000000000000e+00  0.0000000000000000e+00  0.0000000000000000e+00  0.0000000000000000e+00  0.0000000000000000e+00  0.0000000000000000e+00  0.0000000000000000e+00  0.0000000000000000e+00  0.0000000000000000e+00  0.0000000000000000e+00  0.0000000000000000e+00  0.0000000000000000e+00  0.0000000000000000e+00  0.0000000000000000e+00  0.0000000000000000e+00  0.0000000000000000e+00  0.0000000000000000e+00  0.0000000000000000e+00  0.0000000000000000e+00  0.0000000000000000e+00  0.0000000000000000e+00  0.0000000000000000e+00  0.0000000000000000e+00  0.0000000000000000e+00  0.0000000000000000e+00  0.0000000000000000e+00  0.0000000000000000e+00  0.0000000000000000e+00  0.0000000000000000e+00  0.0000000000000000e+00  0.0000000000000000e+00  0.0000000000000000e+00  0.0000000000000000e+00  0.0000000000000000e+00  0.0000000000000000e+00  0.0000000000000000e+00  0.0000000000000000e+00  0.0000000000000000e+00  0.0000000000000000e+00  0.0000000000000000e+00  0.0000000000000000e+00  0.0000000000000000e+00  0.0000000000000000e+00  0.0000000000000000e+00  0.0000000000000000e+00  0.0000000000000000e+00  0.0000000000000000e+00  0.0000000000000000e+00  0.0000000000000000e+00  0.0000000000000000e+00  0.0000000000000000e+00  0.0000000000000000e+00  0.0000000000000000e+00  0.0000000000000000e+00  0.0000000000000000e+00  0.0000000000000000e+00  0.0000000000000000e+00  0.0000000000000000e+00  0.0000000000000000e+00  0.0000000000000000e+00  0.0000000000000000e+00  0.0000000000000000e+00  0.0000000000000000e+00  0.0000000000000000e+00  0.0000000000000000e+00  0.0000000000000000e+00  0.0000000000000000e+00  0.0000000000000000e+00  0.0000000000000000e+00  0.0000000000000000e+00  0.0000000000000000e+00  0.0000000000000000e+00  0.0000000000000000e+00  0.0000000000000000e+00  0.0000000000000000e+00  0.0000000000000000e+00  0.0000000000000000e+00  0.0000000000000000e+00  0.0000000000000000e+00  0.0000000000000000e+00  0.0000000000000000e+00  0.0000000000000000e+00  0.0000000000000000e+00  0.0000000000000000e+00  0.0000000000000000e+00  0.0000000000000000e+00  0.0000000000000000e+00  0.0000000000000000e+00  0.0000000000000000e+00  0.0000000000000000e+00  0.0000000000000000e+00  0.0000000000000000e+00  0.0000000000000000e+00  0.0000000000000000e+00  0.0000000000000000e+00  0.0000000000000000e+00  0.0000000000000000e+00  0.0000000000000000e+00  0.0000000000000000e+00  0.0000000000000000e+00  0.0000000000000000e+00  0.0000000000000000e+00  0.0000000000000000e+00  0.0000000000000000e+00  0.0000000000000000e+00  0.0000000000000000e+00  0.0000000000000000e+00  0.0000000000000000e+00  0.0000000000000000e+00  0.0000000000000000e+00  0.0000000000000000e+00  0.0000000000000000e+00  0.0000000000000000e+00  0.0000000000000000e+00  0.0000000000000000e+00  0.0000000000000000e+00  0.0000000000000000e+00  0.0000000000000000e+00  0.0000000000000000e+00  0.0000000000000000e+00  0.0000000000000000e+00  0.0000000000000000e+00  0.0000000000000000e+00  0.0000000000000000e+00  0.0000000000000000e+00  0.0000000000000000e+00  0.0000000000000000e+00  0.0000000000000000e+00  0.0000000000000000e+00  0.0000000000000000e+00  0.0000000000000000e+00  0.0000000000000000e+00  0.0000000000000000e+00  0.0000000000000000e+00  0.0000000000000000e+00  0.0000000000000000e+00  0.0000000000000000e+00  0.0000000000000000e+00  0.0000000000000000e+00  0.0000000000000000e+00  0.0000000000000000e+00  0.0000000000000000e+00  0.0000000000000000e+00  0.0000000000000000e+00  0.0000000000000000e+00  0.0000000000000000e+00  0.0000000000000000e+00  0.0000000000000000e+00  0.0000000000000000e+00  0.0000000000000000e+00  0.0000000000000000e+00  0.0000000000000000e+00  0.0000000000000000e+00  0.0000000000000000e+00  0.0000000000000000e+00  0.0000000000000000e+00  0.0000000000000000e+00  0.0000000000000000e+00  0.0000000000000000e+00  0.0000000000000000e+00  0.0000000000000000e+00  0.0000000000000000e+00  0.0000000000000000e+00  0.0000000000000000e+00  0.0000000000000000e+00  0.0000000000000000e+00  0.0000000000000000e+00  0.0000000000000000e+00  0.0000000000000000e+00  0.0000000000000000e+00  0.0000000000000000e+00  0.0000000000000000e+00  0.0000000000000000e+00  0.0000000000000000e+00  0.0000000000000000e+00  0.0000000000000000e+00  0.0000000000000000e+00  0.0000000000000000e+00  0.0000000000000000e+00  0.0000000000000000e+00  0.0000000000000000e+00  0.0000000000000000e+00  0.0000000000000000e+00  0.0000000000000000e+00  0.0000000000000000e+00  0.0000000000000000e+00  0.0000000000000000e+00  0.0000000000000000e+00  0.0000000000000000e+00  0.0000000000000000e+00  0.0000000000000000e+00  0.0000000000000000e+00  0.0000000000000000e+00  0.0000000000000000e+00  0.0000000000000000e+00  0.0000000000000000e+00  0.0000000000000000e+00  0.0000000000000000e+00  0.0000000000000000e+00  0.0000000000000000e+00  0.0000000000000000e+00  0.0000000000000000e+00  0.0000000000000000e+00  0.0000000000000000e+00  0.0000000000000000e+00  0.0000000000000000e+00  0.0000000000000000e+00  0.0000000000000000e+00  0.0000000000000000e+00  0.0000000000000000e+00  0.0000000000000000e+00  0.0000000000000000e+00  0.0000000000000000e+00  0.0000000000000000e+00  0.0000000000000000e+00  0.0000000000000000e+00  0.0000000000000000e+00  0.0000000000000000e+00  0.0000000000000000e+00  0.0000000000000000e+00  0.0000000000000000e+00  0.0000000000000000e+00  0.0000000000000000e+00  0.0000000000000000e+00  0.0000000000000000e+00  0.0000000000000000e+00  0.0000000000000000e+00  0.0000000000000000e+00  1.6261996463485387e-01  1.7029461353624764e-01  1.8611400166259529e-01  1.9300629881472336e-01  1.8615849146310617e-01  1.7051520726889724e-01  1.8716096101321916e-01  1.7378057001523523e-01  1.8950346044446340e-01  1.8077020391191725e-01  1.7872542402372762e-01  1.8823414414158618e-01  1.8658493792404049e-01  2.1736904446828711e-01  1.8721017241128063e-01  1.9900441449344664e-01  1.8091609279731782e-01  1.8634404566901325e-01  1.6814928945374788e-01  1.8073732413820742e-01  2.0894491161190881e-01  2.0666292064201441e-01  1.8512166566867094e-01  1.7720404562141853e-01  1.7370625990987376e-01  1.7880879411828304e-01  1.9630786362152108e-01  1.4436592392036682e-01  1.9467576111446949e-01  1.8595353013092411e-01  1.8615262896220597e-01  2.0027002874933592e-01  1.8287070903954442e-01  1.8494382043716076e-01  1.8007317671881923e-01  1.7360323486872600e-01  1.6645263743212410e-01  1.8909801116030561e-01  1.7987154092886676e-01  1.8942118767738966e-01  2.0971434338267567e-01  1.8213933371491844e-01  1.7424822348660082e-01  1.9191424430791218e-01  1.9049150200950771e-01  1.8407266220177079e-01  1.7820180618568085e-01  1.8684034680508807e-01  1.6626025017758247e-01  1.8397448638428662e-01  1.8529932212342468e-01  1.8674312201570756e-01  1.9144820034018384e-01  1.7994705753968948e-01  1.7987458311096374e-01  1.8651312509130089e-01  1.9112382324958507e-01  1.7632954265908260e-01  1.7803379423986929e-01  1.7875764317265258e-01  1.8078753377415574e-01  1.8401304188861581e-01  1.9111811819013449e-01  1.8896039986824886e-01  1.8108001240795180e-01  1.8653072747663724e-01  1.8681509069902039e-01  1.8697926791905706e-01  1.7297410710778488e-01  1.9602906539333362e-01  1.7836925216284991e-01  1.8715119755819579e-01  1.7395526921952742e-01  1.8438143818000058e-01  1.7023424242939603e-01  1.8762957636049341e-01  1.7008671139519460e-01  1.8856791737825981e-01  2.1667925409588706e-01  1.9193073698772700e-01  1.8026636236467558e-01  1.7677989564025964e-01  1.9083287066645294e-01  2.0009047670042704e-01  1.7721082529541535e-01  1.8078161128601475e-01  1.7175956760713004e-01  2.0059285266397400e-01  1.6289083932501613e-01  1.8659614881734612e-01  1.8292754949015136e-01  1.7314205242943645e-01  1.6914327034472226e-01  1.8616782493906589e-01  1.8034188037966342e-01  1.7682606776119800e-01  1.8714700031976189e-01  1.7569804986903317e-01  1.8085687664957542e-01  1.8675607066829097e-01  1.8781809996757576e-01  1.7498625049344085e-01  1.8824158161369822e-01  2.0792063581474846e-01  1.9241793243324948e-01  1.8618607592911146e-01  1.7153456467660605e-01  2.0300392897359812e-01  1.8670336413949074e-01  2.0715430767706755e-01  1.8245876567400912e-01  1.8561337788723095e-01  1.6731260499859402e-01  1.7578791207054409e-01  2.1416090304773128e-01  1.8211620009975008e-01  1.7135863801606183e-01  1.8593973074336756e-01  1.7839080693971185e-01  1.8705477973072421e-01  1.8672543311640022e-01  1.6811722879997537e-01  1.9205749695742796e-01  1.8049595221407283e-01  1.9073800270789709e-01  1.8722750721448672e-01  1.6759883359188882e-01  1.8589039839030194e-01  1.8617854040001125e-01  3.7545230798292656e-01  3.7421112956012131e-01  5.6641227103792025e-01  5.6561142226016570e-01  7.6017986112135882e-01  7.5875597303599407e-01  9.5583060809763831e-01  9.5397705490946827e-01  1.1524981814687738e+00  1.1512105597048623e+00  1.3500988473956246e+00  1.3481486607740261e+00  1.5473716342586106e+00  1.5460034493162493e+00  1.7443533713062258e+00  1.7423191844416583e+00  1.9398281383847433e+00  1.9384013232742656e+00  2.1338557398391815e+00  2.1317497371640255e+00  2.3252150554137194e+00  2.3237434612796517e+00  2.5140076662435726e+00  2.5118446751368921e+00  2.6990219870064216e+00  2.6975212129995483e+00  2.8804168819771458e+00  2.8782127713001460e+00  3.0570060523287204e+00  3.0554930412795946e+00  3.2290223430272915e+00  3.2267939017975054e+00  3.3953202111713874e+00  3.3938126877080492e+00  3.5562226999152968e+00  3.5539873370565238e+00  3.7106394217631404e+00  3.7091552182249439e+00  3.8589978059370051e+00  3.8567731545715112e+00  4.0002749949176160e+00  3.9988312792038228e+00  4.1350133316585316e+00  4.1328167699422620e+00  4.2622668871039417e+00  4.2608793324197123e+00  4.3826982443983749e+00  4.3805463501048321e+00  4.4954440059135159e+00  4.4941259515879413e+00  4.6012858505436247e+00  4.5991938158975598e+00  4.6994441540356444e+00  4.6982058123807500e+00  4.7908112407362937e+00  4.7887922818557325e+00  4.8746879298487729e+00  4.8735356958815172e+00  4.9520611605889346e+00  4.9501259608895056e+00  5.0223045023192059e+00  5.0212404205801207e+00  5.0864762571225324e+00  5.0846324855130538e+00  5.1440113339655671e+00  5.1430327695455258e+00  5.1960099267704107e+00  5.1942618691722728e+00  5.2419542072489156e+00  5.2410537568234785e+00  5.2829521620951256e+00  5.2813004988630716e+00  5.3185178561176754e+00  5.3176835200527233e+00  5.3497304057269233e+00  5.3481721583951831e+00  5.3761206783645692e+00  5.3753362979011481e+00  5.3987020652660309e+00  5.3972307244698277e+00  5.4170090424753399e+00  5.4162549879445798e+00  5.4319547116056457e+00  5.4305605450525851e+00  5.4430673562926080e+00  5.4423214346858275e+00  5.4511298957479442e+00  5.4498004218951328e+00  5.4556592285077956e+00  5.4548977629369730e+00  5.4572849470712805e+00  5.4560055478964129e+00  5.4555127769686536e+00  5.4547117978550546e+00  5.4521859873501075e+00  5.4508041849486535e+00  5.4478950580372016e+00  5.4417960983719524e+00  5.4367123558444543e+00  5.4283287455374243e+00  5.4209671568888869e+00  5.4101708032196383e+00  5.4003943446371849e+00  5.3870259647377372e+00  5.3746677385212518e+00  5.3585413455377147e+00  5.3688438047126024e+00  5.3434093398139044e+00  5.3574811187775460e+00  5.3373839162537760e+00  5.3455842057824698e+00  5.3232248091388472e+00  5.3352055808461945e+00  5.3109103941473812e+00  5.3169273654653066e+00  5.2977063376114284e+00  5.3075244052328703e+00  5.2787854310576412e+00  5.2825065521611876e+00  5.2665222554060751e+00  5.2740738045946900e+00  5.2406331384370999e+00  5.2419186784079628e+00  5.2293002907146864e+00  5.2344534166736505e+00  5.1960480327654608e+00  5.1947359415981245e+00  5.1856384220993963e+00  5.1882378738507802e+00  5.1446068747095151e+00  5.1405182152300943e+00  5.1351166329744000e+00  5.1349891338412164e+00  5.0858810812482274e+00  5.0788258581172103e+00  5.0773092491418268e+00  5.0742692399190528e+00  5.0194493797727997e+00  5.0092326037808359e+00  5.0117975296223687e+00  5.0056531733611145e+00  5.0119547789706722e+00  4.9449103733173256e+00  4.9313381975304704e+00  4.9930322331370371e+00  4.9115575859215692e+00  4.9707161484364786e+00  4.8854267096441664e+00  4.9421118559303396e+00  4.8527691328574702e+00  4.9070121653579220e+00  4.9414360776096160e+00  4.9385384479670282e+00  4.8133798238718839e+00  4.8651820739087386e+00  4.8618946964092000e+00  4.8726918639988064e+00  4.8628279816300024e+00  4.8567027418717679e+00  4.7670322238867149e+00  4.8163666601113873e+00  4.7134861716944600e+00  4.7602997645309282e+00  4.7843820510886994e+00  4.7922498657944388e+00  4.7756516523818773e+00  4.7661311963198774e+00  4.6594256272317240e+00  4.6524964604603731e+00  4.6967132145750927e+00  4.6985101083521039e+00  4.7032921064230528e+00  4.6796313934919258e+00  4.6665587698566684e+00  4.5838217877759906e+00  4.6253463390292939e+00  4.6040283723333690e+00  4.6055713385274011e+00  4.5745469621822759e+00  4.5844772160639824e+00  4.5577810629570195e+00  4.5072338530426652e+00  4.5459555144522197e+00  4.5007352856509630e+00  4.4988944390185894e+00  4.4738310142179891e+00  4.4804673300536724e+00  4.4225263569870963e+00  4.4583234902543198e+00  4.5775657438623254e+00  4.4869604485235470e+00  4.6021804093828633e+00  4.5085300100647618e+00  4.6198955501078807e+00  4.5231060768305094e+00  4.6307832934163358e+00  4.5307403244243645e+00  4.6348888100525381e+00  4.5314598691134265e+00  4.6322283984984578e+00  4.5252660227036925e+00  4.6227887564889674e+00  4.5121341732896330e+00  4.6065274618820498e+00  4.4920147957791769e+00  4.5833746487065934e+00  4.4648355618650672e+00  4.5532358283239009e+00  4.4305044859472993e+00  4.5159957714889201e+00  4.3889140125570281e+00  4.4715233358509225e+00  4.3399459231439632e+00  4.4196770961470460e+00  4.2834769166041697e+00  4.3603116119226337e+00  5.0653946842142883e+00  4.9934611074632125e+00  5.0505966944630432e+00  4.9751164990640486e+00  5.0297402858857918e+00  4.9504736941156491e+00  5.0026486935289736e+00  4.9193510263170683e+00  4.9691090892801864e+00  4.8815368874374103e+00  4.9288795351134045e+00  4.8367968847691047e+00  4.8816969744519083e+00  4.7848818815493770e+00  4.8272860356983989e+00  4.7255366930301701e+00  4.7653684015532578e+00  4.6585091951795210e+00  4.6956724853317970e+00  4.6142311796658717e+00  4.5835595952043686e+00  4.6179431514178502e+00  4.5004696133472537e+00  4.5319512212689785e+00  4.4090513335938502e+00  4.4375025187319386e+00  4.4174731116528827e+00  4.3884864448744834e+00  4.3831303171534017e+00  4.3680109025799956e+00  4.3642580464142782e+00  4.2193846994171107e+00  4.2932841507827399e+00  4.3091554966069783e+00  4.3344462282590150e+00  4.2672015731928399e+00  4.2582164691346973e+00  4.1475544083111684e+00  4.2184616744502783e+00  4.3594132536333321e+00  4.2816555187173586e+00  4.1375919698105443e+00  4.1357278905615624e+00  4.1959026966686883e+00  4.3372561981125513e+00  4.2485112389977111e+00  4.2006790306792086e+00  4.2226823660904476e+00  4.1713523616751482e+00  4.3853904585137391e+00  4.2936598851033452e+00  4.1515632953026937e+00  4.1936130411849932e+00  4.3314538610463114e+00  4.2282854114507256e+00  4.1368701152867144e+00  4.1241640619561171e+00  4.1423893131228668e+00  4.3674589501087011e+00  4.2457359455078523e+00  4.2453747221589824e+00  4.1182392968025461e+00  4.1142082051548892e+00  4.0851727549131862e+00  4.1166027704322135e+00  4.2556586505533831e+00  4.1406876825601335e+00  4.0835716448295232e+00  4.1021681965071242e+00  4.2758001192320272e+00  4.1574774360890094e+00  4.2374132531408097e+00  4.1134233369147291e+00  4.0067699808456467e+00  4.0087175899941583e+00  4.0170625069531969e+00  4.0303874243525390e+00  4.1670092181260365e+00  4.0363808410197626e+00  4.1693054123569562e+00  4.0350546375362466e+00  4.3794616600197234e+00  4.2894768509606616e+00  4.2420324598320684e+00  4.1468594742895251e+00  4.0950368608807128e+00  3.9948146141037175e+00  3.9386547658842090e+00  4.1149925350726262e+00  4.2449083242974170e+00  4.1173607569815749e+00  3.9822347593181409e+00  3.9752985728737236e+00  3.9806012857778419e+00  3.9808885150257916e+00  4.1139905439293276e+00  3.9737879937857903e+00  4.1643724250656291e+00  4.0264076818471546e+00  4.1033086606448350e+00  3.9592916290335753e+00  3.8969566204778441e+00  3.8335710597495738e+00  3.7731550530390932e+00  3.8679916962701619e+00  3.8662821658291109e+00  3.8374823916875158e+00  3.8267995654772786e+00  3.8390519503299476e+00  4.1522004185660455e+00  4.0104260064930051e+00  4.0852972960589060e+00  3.9373811084709369e+00  4.6333897332859344e+00  4.1327639596739862e+00  3.9870838231493271e+00  4.2848430569736715e+00  4.0599260750378825e+00  3.9080293943929467e+00  3.7805579904695819e+00  3.7472339349393229e+00  3.8712029456154435e+00  3.7063880857180211e+00  3.7206816671021201e+00  3.7152526983374417e+00  3.6634448561267723e+00  3.5988936504783839e+00  3.6841776947555003e+00  3.6697177518152047e+00  4.1060235625324450e+00  3.9563453421727361e+00  3.8324026388646404e+00  3.7976683127029052e+00  3.6689859547545507e+00  3.6302924023858427e+00  3.7554373315685186e+00  3.5840740534284627e+00  3.7056770528310290e+00  3.5303151950342277e+00  3.8268645971947861e+00  3.6579972373799441e+00  4.2026814779852657e+00  3.6151186048137998e+00  3.5650584201725315e+00  3.5558735017938981e+00  3.5668098283586249e+00  3.4848366344694099e+00  3.4163101410435903e+00  3.6483583759500200e+00  3.4690072340077576e+00  3.7749770075233142e+00  3.6020418003791286e+00  4.7982804827220695e+00  3.5225906611532150e+00  3.5333331177255851e+00  3.5043517390263812e+00  3.4971798650290817e+00  3.5834597968762401e+00  3.4001525071824257e+00  3.7155065654458532e+00  3.5385095372137507e+00  3.4208375413160361e+00  3.3534105448275566e+00  3.4673995464000602e+00  3.2784711380570020e+00  4.7241846025404737e+00  3.4069067788411078e+00  3.4049515418472343e+00  3.5457858381256262e+00  3.3630203633586748e+00  3.4202726722075929e+00  3.3675520711296940e+00  3.3745313893457789e+00  3.2817401376631659e+00  3.2091301967885681e+00  3.3237682337946071e+00  3.3887263721239678e+00  3.1960620651815441e+00  3.1290853436133457e+00  3.2398904896004983e+00  3.2318758831437959e+00  4.2421317647050758e+00  4.1042469564613109e+00  3.2335830315712744e+00  3.2870503449047352e+00  3.2411264109166846e+00  3.2354612038226533e+00  3.3025241154527643e+00  3.1062477471533780e+00  3.0416711229616373e+00  3.1485780839483000e+00  4.9541247983942416e+00  3.2049112746494184e+00  3.2081063400080327e+00  5.1920357601305334e+00  3.0871218724161293e+00  3.5267261758232595e+00  3.3402253415116672e+00  4.6467655225901057e+00  4.5341223199913649e+00  3.2088504251944157e+00  3.0091177857880327e+00  5.0119018067579475e+00  3.0967123500717371e+00  3.1463165158487199e+00  2.9469774811736706e+00  3.0499162264504962e+00  3.0681119265226742e+00  3.0587603815948974e+00  3.0350424763663701e+00  3.0344582225457253e+00  3.1077902527338743e+00  2.9047901948664920e+00  3.4014972355047584e+00  3.2481436312345759e+00  3.4469508811428686e+00  3.2566200032927282e+00  2.9032296564816815e+00  2.8451219237330312e+00  2.9440198789595855e+00  2.9526472232263736e+00  2.9983229211476230e+00  4.6201721532725504e+00  4.5034896465918184e+00  3.7585242364704556e+00  3.8839296157042082e+00  2.9994592651354322e+00  3.3595966700016464e+00  3.1655545202548923e