<?xml version="1.0"?>
<VTKFile type="UnstructuredGrid"  version="0.1"  >
<UnstructuredGrid>
<Piece  NumberOfPoints="6201" NumberOfCells="12144">
<Points>
<DataArray  type="Float64"  NumberOfComponents="3"  format="ascii">0 1 0  0 -1 0  1 0 0  -1 0 0  -0.02454122852287776 0.999698818696205 0  -0.04906767432734942 0.9987954562051757 0  -0.07356456359955947 0.9972904566786982 0  -0.098017140329409 0.9951847266722118 0  -0.1224106751990381 0.9924795345987319 0  -0.14673047445516 0.9891765099648109 0  -0.1709618887600765 0.9852776423889802 0  -0.1950903220158731 0.9807852804032812 0  -0.2191012401565635 0.9757021300385973 0  -0.2429801799028944 0.9700312531946366 0  -0.2667127574744887 0.9637760657955532 0  -0.2902846772539959 0.9569403357323504 0  -0.3136817403983533 0.9495281805932144 0  -0.3368898533916172 0.9415440651832365 0  -0.3598950365343229 0.9329927988349955 0  -0.3826834323643665 0.9238795325115864 0  -0.4052413140042221 0.914209755703871 0  -0.4275550934294596 0.9039892931238324 0  -0.4496113296537328 0.8932243011959552 0  -0.4713967368250455 0.881921264348864 0  -0.4928981922288082 0.8700869911092642 0  -0.5141027441922073 0.8577286100008801 0  -0.5349976198860099 0.8448535652503956 0  -0.5555702330184784 0.8314696123032962 0  -0.5758081914166656 0.8175848131524146 0  -0.5956993044911779 0.803207531481576 0  -0.6152315905793139 0.788346427627631 0  -0.634393284162254 0.7730104533638789 0  -0.6531728429523989 0.7572088465076731 0  -0.6715589548456731 0.7409511253561784 0  -0.6895405447357167 0.7242470829527524 0  -0.707106781185206 0.7071067811878892 0  -0.7242470829501997 0.6895405447383979 0  -0.7409511253537779 0.6715589548483216 0  -0.7572088465053896 0.6531728429550462 0  -0.7730104533617177 0.6343932841648875 0  -0.7883464276256243 0.6152315905818851 0  -0.8032075314797054 0.5956993044937002 0  -0.8175848131507105 0.5758081914190851 0  -0.8314696123017388 0.5555702330208091 0  -0.844853565248969 0.5349976198882627 0  -0.8577286099996108 0.514102744194325 0  -0.8700869911081144 0.492898192230838 0  -0.8819212643478147 0.4713967368270084 0  -0.8932243011950445 0.449611329655542 0  -0.9039892931230238 0.4275550934311692 0  -0.9142097557031724 0.4052413140057979 0  -0.9238795325109728 0.3826834323658478 0  -0.9329927988344826 0.3598950365356525 0  -0.9415440651828083 0.336889853392814 0  -0.9495281805928644 0.3136817403994129 0  -0.9569403357320729 0.2902846772549104 0  -0.9637760657953238 0.2667127574753179 0  -0.9700312531944527 0.2429801799036284 0  -0.9757021300384615 0.2191012401571683 0  -0.9807852804031804 0.1950903220163801 0  -0.9852776423889043 0.1709618887605145 0  -0.9891765099647555 0.1467304744555333 0  -0.9924795345986914 0.1224106751993664 0  -0.9951847266721815 0.09801714032971656 0  -0.9972904566786818 0.07356456359978128 0  -0.9987954562051686 0.04906767432749375 0  -0.9996988186962037 0.02454122852293202 0  -0.999698818696205 -0.02454122852287776 0  -0.9987954562051757 -0.04906767432734942 0  -0.9972904566786982 -0.07356456359955947 0  -0.9951847266722118 -0.098017140329409 0  -0.9924795345987319 -0.1224106751990381 0  -0.9891765099648109 -0.14673047445516 0  -0.9852776423889802 -0.1709618887600765 0  -0.9807852804032812 -0.1950903220158731 0  -0.9757021300385973 -0.2191012401565635 0  -0.9700312531946366 -0.2429801799028944 0  -0.9637760657955532 -0.2667127574744887 0  -0.9569403357323504 -0.2902846772539959 0  -0.9495281805932144 -0.3136817403983533 0  -0.9415440651832365 -0.3368898533916172 0  -0.9329927988349955 -0.3598950365343229 0  -0.9238795325115864 -0.3826834323643665 0  -0.914209755703871 -0.4052413140042221 0  -0.9039892931238324 -0.4275550934294596 0  -0.8932243011959552 -0.4496113296537328 0  -0.881921264348864 -0.4713967368250455 0  -0.8700869911092642 -0.4928981922288082 0  -0.8577286100008801 -0.5141027441922073 0  -0.8448535652503956 -0.5349976198860099 0  -0.8314696123032962 -0.5555702330184784 0  -0.8175848131524146 -0.5758081914166656 0  -0.803207531481576 -0.5956993044911779 0  -0.788346427627631 -0.6152315905793139 0  -0.7730104533638789 -0.634393284162254 0  -0.7572088465076731 -0.6531728429523989 0  -0.7409511253561784 -0.6715589548456731 0  -0.7242470829527524 -0.6895405447357167 0  -0.7071067811878892 -0.707106781185206 0  -0.6895405447383979 -0.7242470829501997 0  -0.6715589548483216 -0.7409511253537779 0  -0.6531728429550462 -0.7572088465053896 0  -0.6343932841648875 -0.7730104533617177 0  -0.6152315905818851 -0.7883464276256243 0  -0.5956993044937002 -0.8032075314797054 0  -0.5758081914190851 -0.8175848131507105 0  -0.5555702330208091 -0.8314696123017388 0  -0.5349976198882627 -0.844853565248969 0  -0.514102744194325 -0.8577286099996108 0  -0.492898192230838 -0.8700869911081144 0  -0.4713967368270084 -0.8819212643478147 0  -0.449611329655542 -0.8932243011950445 0  -0.4275550934311692 -0.9039892931230238 0  -0.4052413140057979 -0.9142097557031724 0  -0.3826834323658478 -0.9238795325109728 0  -0.3598950365356525 -0.9329927988344826 0  -0.336889853392814 -0.9415440651828083 0  -0.3136817403994129 -0.9495281805928644 0  -0.2902846772549104 -0.9569403357320729 0  -0.2667127574753179 -0.9637760657953238 0  -0.2429801799036284 -0.9700312531944527 0  -0.2191012401571683 -0.9757021300384615 0  -0.1950903220163801 -0.9807852804031804 0  -0.1709618887605145 -0.9852776423889043 0  -0.1467304744555333 -0.9891765099647555 0  -0.1224106751993664 -0.9924795345986914 0  -0.09801714032971656 -0.9951847266721815 0  -0.07356456359978128 -0.9972904566786818 0  -0.04906767432749375 -0.9987954562051686 0  -0.02454122852293202 -0.9996988186962037 0  0.02454122852287776 -0.999698818696205 0  0.04906767432734942 -0.9987954562051757 0  0.07356456359955947 -0.9972904566786982 0  0.098017140329409 -0.9951847266722118 0  0.1224106751990381 -0.9924795345987319 0  0.14673047445516 -0.9891765099648109 0  0.1709618887600765 -0.9852776423889802 0  0.1950903220158731 -0.9807852804032812 0  0.2191012401565635 -0.9757021300385973 0  0.2429801799028944 -0.9700312531946366 0  0.2667127574744887 -0.9637760657955532 0  0.2902846772539959 -0.9569403357323504 0  0.3136817403983533 -0.9495281805932144 0  0.3368898533916172 -0.9415440651832365 0  0.3598950365343229 -0.9329927988349955 0  0.3826834323643665 -0.9238795325115864 0  0.4052413140042221 -0.914209755703871 0  0.4275550934294596 -0.9039892931238324 0  0.4496113296537328 -0.8932243011959552 0  0.4713967368250455 -0.881921264348864 0  0.4928981922288082 -0.8700869911092642 0  0.5141027441922073 -0.8577286100008801 0  0.5349976198860099 -0.8448535652503956 0  0.5555702330184784 -0.8314696123032962 0  0.5758081914166656 -0.8175848131524146 0  0.5956993044911779 -0.803207531481576 0  0.6152315905793139 -0.788346427627631 0  0.634393284162254 -0.7730104533638789 0  0.6531728429523989 -0.7572088465076731 0  0.6715589548456731 -0.7409511253561784 0  0.6895405447357167 -0.7242470829527524 0  0.707106781185206 -0.7071067811878892 0  0.7242470829501997 -0.6895405447383979 0  0.7409511253537779 -0.6715589548483216 0  0.7572088465053896 -0.6531728429550462 0  0.7730104533617177 -0.6343932841648875 0  0.7883464276256243 -0.6152315905818851 0  0.8032075314797054 -0.5956993044937002 0  0.8175848131507105 -0.5758081914190851 0  0.8314696123017388 -0.5555702330208091 0  0.844853565248969 -0.5349976198882627 0  0.8577286099996108 -0.514102744194325 0  0.8700869911081144 -0.492898192230838 0  0.8819212643478147 -0.4713967368270084 0  0.8932243011950445 -0.449611329655542 0  0.9039892931230238 -0.4275550934311692 0  0.9142097557031724 -0.4052413140057979 0  0.9238795325109728 -0.3826834323658478 0  0.9329927988344826 -0.3598950365356525 0  0.9415440651828083 -0.336889853392814 0  0.9495281805928644 -0.3136817403994129 0  0.9569403357320729 -0.2902846772549104 0  0.9637760657953238 -0.2667127574753179 0  0.9700312531944527 -0.2429801799036284 0  0.9757021300384615 -0.2191012401571683 0  0.9807852804031804 -0.1950903220163801 0  0.9852776423889043 -0.1709618887605145 0  0.9891765099647555 -0.1467304744555333 0  0.9924795345986914 -0.1224106751993664 0  0.9951847266721815 -0.09801714032971656 0  0.9972904566786818 -0.07356456359978128 0  0.9987954562051686 -0.04906767432749375 0  0.9996988186962037 -0.02454122852293202 0  0.999698818696205 0.02454122852287776 0  0.9987954562051757 0.04906767432734942 0  0.9972904566786982 0.07356456359955947 0  0.9951847266722118 0.098017140329409 0  0.9924795345987319 0.1224106751990381 0  0.9891765099648109 0.14673047445516 0  0.9852776423889802 0.1709618887600765 0  0.9807852804032812 0.1950903220158731 0  0.9757021300385973 0.2191012401565635 0  0.9700312531946366 0.2429801799028944 0  0.9637760657955532 0.2667127574744887 0  0.9569403357323504 0.2902846772539959 0  0.9495281805932144 0.3136817403983533 0  0.9415440651832365 0.3368898533916172 0  0.9329927988349955 0.3598950365343229 0  0.9238795325115864 0.3826834323643665 0  0.914209755703871 0.4052413140042221 0  0.9039892931238324 0.4275550934294596 0  0.8932243011959552 0.4496113296537328 0  0.881921264348864 0.4713967368250455 0  0.8700869911092642 0.4928981922288082 0  0.8577286100008801 0.5141027441922073 0  0.8448535652503956 0.5349976198860099 0  0.8314696123032962 0.5555702330184784 0  0.8175848131524146 0.5758081914166656 0  0.803207531481576 0.5956993044911779 0  0.788346427627631 0.6152315905793139 0  0.7730104533638789 0.634393284162254 0  0.7572088465076731 0.6531728429523989 0  0.7409511253561784 0.6715589548456731 0  0.7242470829527524 0.6895405447357167 0  0.7071067811878892 0.707106781185206 0  0.6895405447383979 0.7242470829501997 0  0.6715589548483216 0.7409511253537779 0  0.6531728429550462 0.7572088465053896 0  0.6343932841648875 0.7730104533617177 0  0.6152315905818851 0.7883464276256243 0  0.5956993044937002 0.8032075314797054 0  0.5758081914190851 0.8175848131507105 0  0.5555702330208091 0.8314696123017388 0  0.5349976198882627 0.844853565248969 0  0.514102744194325 0.8577286099996108 0  0.492898192230838 0.8700869911081144 0  0.4713967368270084 
[...]
<PointData  Scalars="f_14"> 
<DataArray  type="Float64"  Name="f_14"  format="ascii">0.0000000000000000e+00  0.0000000000000000e+00  0.0000000000000000e+00  0.0000000000000000e+00  0.0000000000000000e+00  0.0000000000000000e+00  0.0000000000000000e+00  0.0000000000000000e+00  0.0000000000000000e+00  0.0000000000000000e+00  0.0000000000000000e+00  0.0000000000000000e+00  0.0000000000000000e+00  0.0000000000000000e+00  0.0000000000000000e+00  0.0000000000000000e+00  0.0000000000000000e+00  0.0000000000000000e+00  0.0000000000000000e+00  0.0000000000000000e+00  0.0000000000000000e+00  0.0000000000000000e+00  0.0000000000000000e+00  0.0000000000000000e+00  0.0000000000000000e+00  0.0000000000000000e+00  0.0000000000000000e+00  0.0000000000000000e+00  0.0000000000000000e+00  0.0000000000000000e+00  0.0000000000000000e+00  0.0000000000000000e+00  0.0000000000000000e+00  0.0000000000000000e+00  0.0000000000000000e+00  0.0000000000000000e+00  0.0000000000000000e+00  0.0000000000000000e+00  0.0000000000000000e+00  0.0000000000000000e+00  0.0000000000000000e+00  0.0000000000000000e+00  0.0000000000000000e+00  0.0000000000000000e+00  0.0000000000000000e+00  0.0000000000000000e+00  0.0000000000000000e+00  0.0000000000000000e+00  0.0000000000000000e+00  0.0000000000000000e+00  0.0000000000000000e+00  0.0000000000000000e+00  0.0000000000000000e+00  0.0000000000000000e+00  0.0000000000000000e+00  0.0000000000000000e+00  0.0000000000000000e+00  0.0000000000000000e+00  0.0000000000000000e+00  0.0000000000000000e+00  0.0000000000000000e+00  0.0000000000000000e+00  0.0000000000000000e+00  0.0000000000000000e+00  0.0000000000000000e+00  0.0000000000000000e+00  0.0000000000000000e+00  0.0000000000000000e+00  0.0000000000000000e+00  0.0000000000000000e+00  0.0000000000000000e+00  0.0000000000000000e+00  0.0000000000000000e+00  0.0000000000000000e+00  0.0000000000000000e+00  0.0000000000000000e+00  0.0000000000000000e+00  0.0000000000000000e+00  0.0000000000000000e+00  0.0000000000000000e+00  0.0000000000000000e+00  0.0000000000000000e+00  0.0000000000000000e+00  0.0000000000000000e+00  0.0000000000000000e+00  0.0000000000000000e+00  0.0000000000000000e+00  0.0000000000000000e+00  0.0000000000000000e+00  0.0000000000000000e+00  0.0000000000000000e+00  0.0000000000000000e+00  0.0000000000000000e+00  0.0000000000000000e+00  0.0000000000000000e+00  0.0000000000000000e+00  0.0000000000000000e+00  0.0000000000000000e+00  0.0000000000000000e+00  0.0000000000000000e+00  0.0000000000000000e+00  0.0000000000000000e+00  0.0000000000000000e+00  0.0000000000000000e+00  0.0000000000000000e+00  0.0000000000000000e+00  0.0000000000000000e+00  0.0000000000000000e+00  0.0000000000000000e+00  0.0000000000000000e+00  0.0000000000000000e+00  0.0000000000000000e+00  0.0000000000000000e+00  0.0000000000000000e+00  0.0000000000000000e+00  0.0000000000000000e+00  0.0000000000000000e+00  0.0000000000000000e+00  0.0000000000000000e+00  0.0000000000000000e+00  0.0000000000000000e+00  0.0000000000000000e+00  0.0000000000000000e+00  0.0000000000000000e+00  0.0000000000000000e+00  0.0000000000000000e+00  0.0000000000000000e+00  0.0000000000000000e+00  0.0000000000000000e+00  0.0000000000000000e+00  0.0000000000000000e+00  0.0000000000000000e+00  0.0000000000000000e+00  0.0000000000000000e+00  0.0000000000000000e+00  0.0000000000000000e+00  0.0000000000000000e+00  0.0000000000000000e+00  0.0000000000000000e+00  0.0000000000000000e+00  0.0000000000000000e+00  0.0000000000000000e+00  0.0000000000000000e+00  0.0000000000000000e+00  0.0000000000000000e+00  0.0000000000000000e+00  0.0000000000000000e+00  0.0000000000000000e+00  0.0000000000000000e+00  0.0000000000000000e+00  0.0000000000000000e+00  0.0000000000000000e+00  0.0000000000000000e+00  0.0000000000000000e+00  0.0000000000000000e+00  0.0000000000000000e+00  0.0000000000000000e+00  0.0000000000000000e+00  0.0000000000000000e+00  0.0000000000000000e+00  0.0000000000000000e+00  0.0000000000000000e+00  0.0000000000000000e+00  0.0000000000000000e+00  0.0000000000000000e+00  0.0000000000000000e+00  0.0000000000000000e+00  0.0000000000000000e+00  0.0000000000000000e+00  0.0000000000000000e+00  0.0000000000000000e+00  0.0000000000000000e+00  0.0000000000000000e+00  0.0000000000000000e+00  0.0000000000000000e+00  0.0000000000000000e+00  0.0000000000000000e+00  0.0000000000000000e+00  0.0000000000000000e+00  0.0000000000000000e+00  0.0000000000000000e+00  0.0000000000000000e+00  0.0000000000000000e+00  0.0000000000000000e+00  0.0000000000000000e+00  0.0000000000000000e+00  0.0000000000000000e+00  0.0000000000000000e+00  0.0000000000000000e+00  0.0000000000000000e+00  0.0000000000000000e+00  0.0000000000000000e+00  0.0000000000000000e+00  0.0000000000000000e+00  0.0000000000000000e+00  0.0000000000000000e+00  0.0000000000000000e+00  0.0000000000000000e+00  0.0000000000000000e+00  0.0000000000000000e+00  0.0000000000000000e+00  0.0000000000000000e+00  0.0000000000000000e+00  0.0000000000000000e+00  0.0000000000000000e+00  0.0000000000000000e+00  0.0000000000000000e+00  0.0000000000000000e+00  0.0000000000000000e+00  0.0000000000000000e+00  0.0000000000000000e+00  0.0000000000000000e+00  0.0000000000000000e+00  0.0000000000000000e+00  0.0000000000000000e+00  0.0000000000000000e+00  0.0000000000000000e+00  0.0000000000000000e+00  0.0000000000000000e+00  0.0000000000000000e+00  0.0000000000000000e+00  0.0000000000000000e+00  0.0000000000000000e+00  0.0000000000000000e+00  0.0000000000000000e+00  0.0000000000000000e+00  0.0000000000000000e+00  0.0000000000000000e+00  0.0000000000000000e+00  0.0000000000000000e+00  0.0000000000000000e+00  0.0000000000000000e+00  0.0000000000000000e+00  0.0000000000000000e+00  0.0000000000000000e+00  0.0000000000000000e+00  0.0000000000000000e+00  0.0000000000000000e+00  0.0000000000000000e+00  0.0000000000000000e+00  0.0000000000000000e+00  0.0000000000000000e+00  0.0000000000000000e+00  0.0000000000000000e+00  0.0000000000000000e+00  0.0000000000000000e+00  0.0000000000000000e+00  0.0000000000000000e+00  0.0000000000000000e+00  0.0000000000000000e+00  0.0000000000000000e+00  0.0000000000000000e+00  0.0000000000000000e+00  0.0000000000000000e+00  0.0000000000000000e+00  0.0000000000000000e+00  1.4531097275263843e-01  1.5222112573676796e-01  1.6646808754763714e-01  1.7257420466363110e-01  1.6642623184034319e-01  1.5252268729067278e-01  1.6713524556164028e-01  1.5534973010892880e-01  1.6946314928002462e-01  1.6162953013662260e-01  1.5965607842903551e-01  1.6822774819035202e-01  1.6677663634229409e-01  1.9447162080339658e-01  1.6722865542255200e-01  1.7797312902630172e-01  1.6180593996530490e-01  1.6658638137813295e-01  1.5027433765582898e-01  1.6151596171655805e-01  1.8682238907779128e-01  1.8481836553083222e-01  1.6532482100520882e-01  1.5838553813305020e-01  1.5527669996722337e-01  1.5996784675799494e-01  1.7532200835475717e-01  1.2908185504750413e-01  1.7400570354959169e-01  1.6633330405648686e-01  1.6650053132725437e-01  1.7892864389869423e-01  1.6356864221736345e-01  1.6531021147507222e-01  1.6104551231559555e-01  1.5511578601937384e-01  1.4887696461514593e-01  1.6903809794410196e-01  1.6078969073516680e-01  1.6937803435363183e-01  1.8752798344518404e-01  1.6267984059041737e-01  1.5575434367774618e-01  1.7169868142214229e-01  1.7034298102783013e-01  1.6451577665015982e-01  1.5916523489015147e-01  1.6696324571839447e-01  1.4868865700661463e-01  1.6448046395514360e-01  1.6556357633317648e-01  1.6688860051893492e-01  1.7116571857176355e-01  1.6094356044563604e-01  1.6063005251044188e-01  1.6671803977516436e-01  1.7085502852224177e-01  1.5773870780364302e-01  1.5916833066680261e-01  1.5963720822708347e-01  1.6169359020732765e-01  1.6447493520377521e-01  1.7097362768890562e-01  1.6880844195921929e-01  1.6196554728043452e-01  1.6672657989288794e-01  1.6709051922226500e-01  1.6706155335086223e-01  1.5471361742856710e-01  1.7522859874758731e-01  1.5946861859380554e-01  1.6728499078718481e-01  1.5563272545105675e-01  1.6488790601623859e-01  1.5219445716791152e-01  1.6782302689221254e-01  1.5192372976817783e-01  1.6839175413975227e-01  1.9369148445235715e-01  1.7165239547113204e-01  1.6115896510222930e-01  1.5796875638430230e-01  1.7067905750239395e-01  1.7886963748713233e-01  1.5839235706951540e-01  1.6159700201189051e-01  1.5366530620608709e-01  1.7936582677832030e-01  1.4548239152965298e-01  1.6681213513777654e-01  1.6363401175964218e-01  1.5475894894529907e-01  1.5132025311481251e-01  1.6649968860482309e-01  1.6130709042253674e-01  1.5805652495008657e-01  1.6712563604482089e-01  1.5711613932959440e-01  1.6168415338336933e-01  1.6689755263775310e-01  1.6777948019296721e-01  1.5646526935882213e-01  1.6833486256675853e-01  1.8569578408853360e-01  1.7206432838304253e-01  1.6648064495681972e-01  1.5321946377575985e-01  1.8144092728518027e-01  1.6686207215900656e-01  1.8525478381842281e-01  1.6313206906643177e-01  1.6582534399747878e-01  1.4959325807432661e-01  1.5721413706226711e-01  1.9125351265305882e-01  1.6288643934992908e-01  1.5316394834954006e-01  1.6633294698279741e-01  1.5941637743633311e-01  1.6719529898682839e-01  1.6687560585811345e-01  1.5028377715237518e-01  1.7181598607651116e-01  1.6137887761419489e-01  1.7043163155180510e-01  1.6720426917885781e-01  1.4976499952107464e-01  1.6607305714911391e-01  1.6652511830865110e-01  3.3584613465555091e-01  3.3473247281372936e-01  5.0673183740364336e-01  5.0600978146283249e-01  6.8021718696183642e-01  6.7894830749758095e-01  8.5551811303643455e-01  8.5384781956244182e-01  1.0318808822331822e+00  1.0307350305125775e+00  1.2092900635026924e+00  1.2075258799607751e+00  1.3866364466070298e+00  1.3854174773776964e+00  1.5640252780108383e+00  1.5621769604276459e+00  1.7403861115179702e+00  1.7391110514961245e+00  1.9158558406203927e+00  1.9139324746339617e+00  2.0893571864018248e+00  2.0880350579674336e+00  2.2610719503887271e+00  2.2590846691594550e+00  2.4299277268179500e+00  2.4285683916363232e+00  2.5961597684679751e+00  2.5941202643553884e+00  2.7587122333820173e+00  2.7573261204151858e+00  2.9178820256704556e+00  2.9158024294827314e+00  3.0726405786450197e+00  3.0712383396047915e+00  3.2233533719054974e+00  3.2212460210079454e+00  3.3690284985658923e+00  3.3676206286729231e+00  3.5101050100193092e+00  3.5079821859701523e+00  3.6456353333806293e+00  3.6442317610669930e+00  3.7761345287903887e+00  3.7740081743354978e+00  3.9007049922287020e+00  3.8993146586037746e+00  4.0199371203584047e+00  4.0178185440989997e+00  4.1329866402807056e+00  4.1316170921604591e+00  4.2405151031440962e+00  4.2384146829144980e+00  4.3417325558321513e+00  4.3403895775223358e+00  4.4373638196435374e+00  4.4352907181551631e+00  4.5266719351332441e+00  4.5253592439564976e+00  4.6104334661962287e+00  4.6083953740295671e+00  4.6879610386660717e+00  4.6866800672486457e+00  4.7600681212627807e+00  4.7580710425612533e+00  4.8261118373519665e+00  4.8248616219036586e+00  4.8869250171486875e+00  4.8849731122998969e+00  4.9419030660535608e+00  4.9406802544212729e+00  4.9918787752598703e+00  4.9899742724752576e+00  5.0362791497653188e+00  5.0350781362317729e+00  5.0759167241182208e+00  5.0740599082908906e+00  5.1102436694114175e+00  5.1090568555049849e+00  5.1400323887478203e+00  5.1382216715504825e+00  5.1647547418456625e+00  5.1635729143699676e+00  5.1851246627961975e+00  5.1833567330390897e+00  5.2006298096129306e+00  5.1994426193002363e+00  5.2119099848939490e+00  5.2101800331127528e+00  5.2184668333480104e+00  5.2172633505874746e+00  5.2208540317386944e+00  5.2191560382640922e+00  5.2185877777586658e+00  5.2173570962885627e+00  5.2139855732476441e+00  5.2121280671980328e+00  5.2079567324316081e+00  5.1997405211120560e+00  5.1925995165886887e+00  5.1813553850424583e+00  5.1711996046088471e+00  5.1568717651001315e+00  5.1436414712652780e+00  5.1261608560562708e+00  5.1097836108377379e+00  5.0890700857019935e+00  5.1025390678599205e+00  5.0694631047630860e+00  5.0872683728531838e+00  5.0621218518683211e+00  5.0726621061340298e+00  5.0436214352924038e+00  5.0585018543044136e+00  5.0288164438052574e+00  5.0363923160709456e+00  5.0114234927735284e+00  5.0233469781691173e+00  4.9890106554238800e+00  4.9935729674602705e+00  4.9727268685010966e+00  4.9816474205431751e+00  4.9425454057642604e+00  4.9440335374663000e+00  4.9273731541715389e+00  4.9332328608654903e+00  4.8892512338190954e+00  4.8875955653621705e+00  4.8751933989188023e+00  4.8779248085870330e+00  4.8289542857185568e+00  4.8240789345714239e+00  4.8160140626500354e+00  4.8155428620010357e+00  4.7614826470329996e+00  4.7533084288541740e+00  4.7496633189242248e+00  4.7459112462765241e+00  4.6866728667070880e+00  4.6751204053158792e+00  4.6759775542183695e+00  4.6688654734160160e+00  4.6764508144577404e+00  4.6043765172217439e+00  4.5893694271422385e+00  4.6569433612582003e+00  4.5676481449033313e+00  4.6320872027230804e+00  4.5391556429956381e+00  4.6004817315868101e+00  4.5038221946649193e+00  4.5620439926001133e+00  4.5986375558822274e+00  4.5957636356494174e+00  4.4615684741861585e+00  4.5166818133025384e+00  4.5144666379460254e+00  4.5262436823629493e+00  4.5137677173377480e+00  4.5074804365264622e+00  4.4123092184694190e+00  4.4642978837398113e+00  4.3559573558596849e+00  4.4047942719282513e+00  4.4321286551492500e+00  4.4406141500455503e+00  4.4212679371410344e+00  4.4115063021727341e+00  4.3000121130083873e+00  4.2924284968167736e+00  4.3380772609492144e+00  4.3422696788335013e+00  4.3474035154808988e+00  4.3210673043972365e+00  4.3077784425268737e+00  4.2216456730743843e+00  4.2640623868126877e+00  4.2448299505096045e+00  4.2465562354637250e+00  4.2131294303968376e+00  4.2230371487331810e+00  4.1962713930381330e+00  4.1435442070713249e+00  4.1826795529484952e+00  4.1397809075412537e+00  4.1380507288322166e+00  4.1109159058085032e+00  4.1173863128563735e+00  4.0580765919946167e+00  4.0938780973865212e+00  4.2147627929780747e+00  4.1226159565079712e+00  4.2398285403038161e+00  4.1443154327458789e+00  4.2579065371657538e+00  4.1589974406360204e+00  4.2690195296402074e+00  4.1666767951074686e+00  4.2731816896450665e+00  4.1673609979460640e+00  4.2703976271201673e+00  4.1610495948440844e+00  4.2606620194564089e+00  4.1477341209236895e+00  4.2439598685766038e+00  4.1273986365906108e+00  4.2202673790808287e+00  4.1000208394859605e+00  4.1895534340824483e+00  4.0655737226553308e+00  4.1517816292940175e+00  4.0240277343282296e+00  4.1069128110656550e+00  3.9753533813404034e+00  4.0549080508778435e+00  3.9195242066371967e+00  3.9957319776326559e+00  4.7355815541221187e+00  4.6550884815836158e+00  4.7186362921519924e+00  4.6346029369094959e+00  4.6950190126806834e+00  4.6073493889145265e+00  4.6646569668919922e+00  4.5732550382717498e+00  4.6274640183518745e+00  4.5322368498249483e+00  4.5833441984455163e+00  4.4842052381700448e+00  4.5321958122497827e+00  4.4290682308868510e+00  4.4739159899299770e+00  4.3667360030514129e+00  4.4084055684266588e+00  4.2971256683318249e+00  4.3355741812380364e+00  4.2516127077303079e+00  4.2201662069724817e+00  4.2553454306561642e+00  4.1358034093845255e+00  4.1676620169085243e+00  4.0440047158569614e+00  4.0724907022023773e+00  4.0524816088196687e+00  4.0271298764828574e+00  4.0219039530189837e+00  4.0030443064768422e+00  4.0011371582012583e+00  3.8565200618020028e+00  3.9293563802869209e+00  3.9447638379380474e+00  3.9698269944622564e+00  3.9069242072089274e+00  3.8981753640807710e+00  3.7863305884161385e+00  3.8557639871564739e+00  3.9949880189907585e+00  3.9180246498303308e+00  3.7764719832056368e+00  3.7749523247338139e+00  3.8338019982258795e+00  3.9731268429590587e+00  3.8855149311342596e+00  3.8381050550583580e+00  3.8596994452824527e+00  3.8094124077366240e+00  4.0210940845976522e+00  3.9301065761186735e+00  3.7906114664158053e+00  3.8317804625915501e+00  3.9675975469466431e+00  3.8658526756552991e+00  3.7792547663616358e+00  3.7669701855234634e+00  3.7845172542111771e+00  4.0041219877424608e+00  3.8838307457602088e+00  3.8832922062350042e+00  3.7590761617639790e+00  3.7549893157737966e+00  3.7261542961558920e+00  3.7567623237832963e+00  3.8928429048524000e+00  3.7802856294379592e+00  3.7240870906286410e+00  3.7421734688848902e+00  3.9127658741272815e+00  3.7967324805993719e+00  3.8742053229867741e+00  3.7531616895855606e+00  3.6530432425392934e+00  3.6547944551093243e+00  3.6604216338431446e+00  3.6733595450330712e+00  3.8061100625983699e+00  3.6792193314182398e+00  3.8084233692670111e+00  3.6780032170652146e+00  4.0151840682495132e+00  3.9257077834488472e+00  3.8790850909126902e+00  3.7857066738938037e+00  3.7354045334261907e+00  3.6382614065591690e+00  3.5843553290961054e+00  3.7560913951995158e+00  3.8816305732768273e+00  3.7570556042345271e+00  3.6275604068183309e+00  3.6210449759678127e+00  3.6248011107088440e+00  3.6251473910713536e+00  3.7538575525831632e+00  3.6183947977006170e+00  3.8036745629051620e+00  3.6697121844257752e+00  3.7435680787113430e+00  3.6045446053989512e+00  3.5451085000890297e+00  3.4836157847618514e+00  3.4262067324544421e+00  3.5196840776907612e+00  3.5179127850912972e+00  3.4889180258326427e+00  3.4788805604009077e+00  3.4892847729202323e+00  3.7918628207758194e+00  3.6543460590431565e+00  3.7261861143048205e+00  3.5835983944493073e+00  4.2716650693872094e+00  3.7729846718249016e+00  3.6319040469077795e+00  3.9219846813861494e+00  3.7017096237157023e+00  3.5555588557962072e+00  3.4339218576043864e+00  3.4023722002619938e+00  3.5204309942266794e+00  3.3637600169925386e+00  3.3793661156463366e+00  3.3740766423783692e+00  3.3220694583469093e+00  3.2612840894034791e+00  3.3433698181249598e+00  3.3298364936095601e+00  3.7470348136903215e+00  3.6023857088071312e+00  3.4836570430182148e+00  3.4506199426126027e+00  3.3285108507153023e+00  3.2920268481796686e+00  3.4105281788434105e+00  3.2485274884645685e+00  3.3633975432645267e+00  3.1980408565191816e+00  3.4782236952752972e+00  3.3181048153259622e+00  3.8405735358447686e+00  3.2774386109527605e+00  3.2323251057480356e+00  3.2235389109765524e+00  3.2341021137509078e+00  3.1539772570295201e+00  3.0899677643106198e+00  3.3092516011817827e+00  3.1406048481050663e+00  3.4289516114671126e+00  3.2654339985120018e+00  4.4430728335298122e+00  3.1911850840347142e+00  3.2011430683074074e+00  3.1742008627209222e+00  3.1667851170272683e+00  3.2481239476178634e+00  3.0762693178046594e+00  3.3726373147728279e+00  3.2057849495777484e+00  3.0955265490774200e+00  3.0326994344546572e+00  3.1392072731876119e+00  2.9630470877241164e+00  4.3657946212191217e+00  3.0841106615851501e+00  3.0823995716371715e+00  3.2110628980568423e+00  3.0399839498825245e+00  3.0933322286094689e+00  3.0460714018965467e+00  3.0524655713659028e+00  2.9658797034126585e+00  2.8985157444452381e+00  3.0050983296558096e+00  3.0657651322779582e+00  2.8866526566894355e+00  2.8244394619992983e+00  2.9271724469693607e+00  2.9196570406611513e+00  3.8824223066970376e+00  3.7476609695576948e+00  2.9194776096940123e+00  2.9690573204842727e+00  2.9297412896767603e+00  2.9245837568403514e+00  2.9855396142109871e+00  2.8036175430367853e+00  2.7437512455057047e+00  2.8425909973115306e+00  4.6131791178598913e+00  2.8947899465841607e+00  2.8976484118928765e+00  4.8845571386506572e+00  2.7855415512688220e+00  3.1935409107288062e+00  3.0190995435029935e+00  4.2875787561062113e+00  4.1724468602780762e+00  2.8986310608436141e+00  2.7140634817929228e+00  4.6746381113465549e+00  2.7926662351922991e+00  2.8384544057090855e+00  2.6565713406319120e+00  2.7514742498873508e+00  2.7695698388708472e+00  2.7610256763498278e+00  2.7376795198134247e+00  2.7370480153120660e+00  2.8051612984157281e+00  2.6181344940073528e+00  3.0778220694169978e+00  2.9349555196892312e+00  3.1189020019526938e+00  2.9414542000962380e+00  2.6165934005000442e+00  2.5630417566259966e+00  2.6539654455137938e+00  2.6597936525574921e+00  2.7017772269719877e+00  4.2604430974209615e+00  4.1416325617284384e+00  3.4136401583601366e+00  3.5328559926854957e+00  2.7052757064355997e+00  3.0374467998866317e+00  2.8571320559542817e