<?xml version="1.0"?>
<VTKFile type="UnstructuredGrid"  version="0.1"  >
<UnstructuredGrid>
<Piece  NumberOfPoints="6201" NumberOfCells="12144">
<Points>
<DataArray  type="Float64"  NumberOfComponents="3"  format="ascii">0 1 0  0 -1 0  1 0 0  -1 0 0  -0.02454122852287776 0.999698818696205 0  -0.04906767432734942 0.9987954562051757 0  -0.07356456359955947 0.9972904566786982 0  -0.098017140329409 0.9951847266722118 0  -0.1224106751990381 0.9924795345987319 0  -0.14673047445516 0.9891765099648109 0  -0.1709618887600765 0.9852776423889802 0  -0.1950903220158731 0.9807852804032812 0  -0.2191012401565635 0.9757021300385973 0  -0.2429801799028944 0.9700312531946366 0  -0.2667127574744887 0.9637760657955532 0  -0.2902846772539959 0.9569403357323504 0  -0.3136817403983533 0.9495281805932144 0  -0.3368898533916172 0.9415440651832365 0  -0.3598950365343229 0.9329927988349955 0  -0.3826834323643665 0.9238795325115864 0  -0.4052413140042221 0.914209755703871 0  -0.4275550934294596 0.9039892931238324 0  -0.4496113296537328 0.8932243011959552 0  -0.4713967368250455 0.881921264348864 0  -0.4928981922288082 0.8700869911092642 0  -0.5141027441922073 0.8577286100008801 0  -0.5349976198860099 0.8448535652503956 0  -0.5555702330184784 0.8314696123032962 0  -0.5758081914166656 0.8175848131524146 0  -0.5956993044911779 0.803207531481576 0  -0.6152315905793139 0.788346427627631 0  -0.634393284162254 0.7730104533638789 0  -0.6531728429523989 0.7572088465076731 0  -0.6715589548456731 0.7409511253561784 0  -0.6895405447357167 0.7242470829527524 0  -0.707106781185206 0.7071067811878892 0  -0.7242470829501997 0.6895405447383979 0  -0.7409511253537779 0.6715589548483216 0  -0.7572088465053896 0.6531728429550462 0  -0.7730104533617177 0.6343932841648875 0  -0.7883464276256243 0.6152315905818851 0  -0.8032075314797054 0.5956993044937002 0  -0.8175848131507105 0.5758081914190851 0  -0.8314696123017388 0.5555702330208091 0  -0.844853565248969 0.5349976198882627 0  -0.8577286099996108 0.514102744194325 0  -0.8700869911081144 0.492898192230838 0  -0.8819212643478147 0.4713967368270084 0  -0.8932243011950445 0.449611329655542 0  -0.9039892931230238 0.4275550934311692 0  -0.9142097557031724 0.4052413140057979 0  -0.9238795325109728 0.3826834323658478 0  -0.9329927988344826 0.3598950365356525 0  -0.9415440651828083 0.336889853392814 0  -0.9495281805928644 0.3136817403994129 0  -0.9569403357320729 0.2902846772549104 0  -0.9637760657953238 0.2667127574753179 0  -0.9700312531944527 0.2429801799036284 0  -0.9757021300384615 0.2191012401571683 0  -0.9807852804031804 0.1950903220163801 0  -0.9852776423889043 0.1709618887605145 0  -0.9891765099647555 0.1467304744555333 0  -0.9924795345986914 0.1224106751993664 0  -0.9951847266721815 0.09801714032971656 0  -0.9972904566786818 0.07356456359978128 0  -0.9987954562051686 0.04906767432749375 0  -0.9996988186962037 0.02454122852293202 0  -0.999698818696205 -0.02454122852287776 0  -0.9987954562051757 -0.04906767432734942 0  -0.9972904566786982 -0.07356456359955947 0  -0.9951847266722118 -0.098017140329409 0  -0.9924795345987319 -0.1224106751990381 0  -0.9891765099648109 -0.14673047445516 0  -0.9852776423889802 -0.1709618887600765 0  -0.9807852804032812 -0.1950903220158731 0  -0.9757021300385973 -0.2191012401565635 0  -0.9700312531946366 -0.2429801799028944 0  -0.9637760657955532 -0.2667127574744887 0  -0.9569403357323504 -0.2902846772539959 0  -0.9495281805932144 -0.3136817403983533 0  -0.9415440651832365 -0.3368898533916172 0  -0.9329927988349955 -0.3598950365343229 0  -0.9238795325115864 -0.3826834323643665 0  -0.914209755703871 -0.4052413140042221 0  -0.9039892931238324 -0.4275550934294596 0  -0.8932243011959552 -0.4496113296537328 0  -0.881921264348864 -0.4713967368250455 0  -0.8700869911092642 -0.4928981922288082 0  -0.8577286100008801 -0.5141027441922073 0  -0.8448535652503956 -0.5349976198860099 0  -0.8314696123032962 -0.5555702330184784 0  -0.8175848131524146 -0.5758081914166656 0  -0.803207531481576 -0.5956993044911779 0  -0.788346427627631 -0.6152315905793139 0  -0.7730104533638789 -0.634393284162254 0  -0.7572088465076731 -0.6531728429523989 0  -0.7409511253561784 -0.6715589548456731 0  -0.7242470829527524 -0.6895405447357167 0  -0.7071067811878892 -0.707106781185206 0  -0.6895405447383979 -0.7242470829501997 0  -0.6715589548483216 -0.7409511253537779 0  -0.6531728429550462 -0.7572088465053896 0  -0.6343932841648875 -0.7730104533617177 0  -0.6152315905818851 -0.7883464276256243 0  -0.5956993044937002 -0.8032075314797054 0  -0.5758081914190851 -0.8175848131507105 0  -0.5555702330208091 -0.8314696123017388 0  -0.5349976198882627 -0.844853565248969 0  -0.514102744194325 -0.8577286099996108 0  -0.492898192230838 -0.8700869911081144 0  -0.4713967368270084 -0.8819212643478147 0  -0.449611329655542 -0.8932243011950445 0  -0.4275550934311692 -0.9039892931230238 0  -0.4052413140057979 -0.9142097557031724 0  -0.3826834323658478 -0.9238795325109728 0  -0.3598950365356525 -0.9329927988344826 0  -0.336889853392814 -0.9415440651828083 0  -0.3136817403994129 -0.9495281805928644 0  -0.2902846772549104 -0.9569403357320729 0  -0.2667127574753179 -0.9637760657953238 0  -0.2429801799036284 -0.9700312531944527 0  -0.2191012401571683 -0.9757021300384615 0  -0.1950903220163801 -0.9807852804031804 0  -0.1709618887605145 -0.9852776423889043 0  -0.1467304744555333 -0.9891765099647555 0  -0.1224106751993664 -0.9924795345986914 0  -0.09801714032971656 -0.9951847266721815 0  -0.07356456359978128 -0.9972904566786818 0  -0.04906767432749375 -0.9987954562051686 0  -0.02454122852293202 -0.9996988186962037 0  0.02454122852287776 -0.999698818696205 0  0.04906767432734942 -0.9987954562051757 0  0.07356456359955947 -0.9972904566786982 0  0.098017140329409 -0.9951847266722118 0  0.1224106751990381 -0.9924795345987319 0  0.14673047445516 -0.9891765099648109 0  0.1709618887600765 -0.9852776423889802 0  0.1950903220158731 -0.9807852804032812 0  0.2191012401565635 -0.9757021300385973 0  0.2429801799028944 -0.9700312531946366 0  0.2667127574744887 -0.9637760657955532 0  0.2902846772539959 -0.9569403357323504 0  0.3136817403983533 -0.9495281805932144 0  0.3368898533916172 -0.9415440651832365 0  0.3598950365343229 -0.9329927988349955 0  0.3826834323643665 -0.9238795325115864 0  0.4052413140042221 -0.914209755703871 0  0.4275550934294596 -0.9039892931238324 0  0.4496113296537328 -0.8932243011959552 0  0.4713967368250455 -0.881921264348864 0  0.4928981922288082 -0.8700869911092642 0  0.5141027441922073 -0.8577286100008801 0  0.5349976198860099 -0.8448535652503956 0  0.5555702330184784 -0.8314696123032962 0  0.5758081914166656 -0.8175848131524146 0  0.5956993044911779 -0.803207531481576 0  0.6152315905793139 -0.788346427627631 0  0.634393284162254 -0.7730104533638789 0  0.6531728429523989 -0.7572088465076731 0  0.6715589548456731 -0.7409511253561784 0  0.6895405447357167 -0.7242470829527524 0  0.707106781185206 -0.7071067811878892 0  0.7242470829501997 -0.6895405447383979 0  0.7409511253537779 -0.6715589548483216 0  0.7572088465053896 -0.6531728429550462 0  0.7730104533617177 -0.6343932841648875 0  0.7883464276256243 -0.6152315905818851 0  0.8032075314797054 -0.5956993044937002 0  0.8175848131507105 -0.5758081914190851 0  0.8314696123017388 -0.5555702330208091 0  0.844853565248969 -0.5349976198882627 0  0.8577286099996108 -0.514102744194325 0  0.8700869911081144 -0.492898192230838 0  0.8819212643478147 -0.4713967368270084 0  0.8932243011950445 -0.449611329655542 0  0.9039892931230238 -0.4275550934311692 0  0.9142097557031724 -0.4052413140057979 0  0.9238795325109728 -0.3826834323658478 0  0.9329927988344826 -0.3598950365356525 0  0.9415440651828083 -0.336889853392814 0  0.9495281805928644 -0.3136817403994129 0  0.9569403357320729 -0.2902846772549104 0  0.9637760657953238 -0.2667127574753179 0  0.9700312531944527 -0.2429801799036284 0  0.9757021300384615 -0.2191012401571683 0  0.9807852804031804 -0.1950903220163801 0  0.9852776423889043 -0.1709618887605145 0  0.9891765099647555 -0.1467304744555333 0  0.9924795345986914 -0.1224106751993664 0  0.9951847266721815 -0.09801714032971656 0  0.9972904566786818 -0.07356456359978128 0  0.9987954562051686 -0.04906767432749375 0  0.9996988186962037 -0.02454122852293202 0  0.999698818696205 0.02454122852287776 0  0.9987954562051757 0.04906767432734942 0  0.9972904566786982 0.07356456359955947 0  0.9951847266722118 0.098017140329409 0  0.9924795345987319 0.1224106751990381 0  0.9891765099648109 0.14673047445516 0  0.9852776423889802 0.1709618887600765 0  0.9807852804032812 0.1950903220158731 0  0.9757021300385973 0.2191012401565635 0  0.9700312531946366 0.2429801799028944 0  0.9637760657955532 0.2667127574744887 0  0.9569403357323504 0.2902846772539959 0  0.9495281805932144 0.3136817403983533 0  0.9415440651832365 0.3368898533916172 0  0.9329927988349955 0.3598950365343229 0  0.9238795325115864 0.3826834323643665 0  0.914209755703871 0.4052413140042221 0  0.9039892931238324 0.4275550934294596 0  0.8932243011959552 0.4496113296537328 0  0.881921264348864 0.4713967368250455 0  0.8700869911092642 0.4928981922288082 0  0.8577286100008801 0.5141027441922073 0  0.8448535652503956 0.5349976198860099 0  0.8314696123032962 0.5555702330184784 0  0.8175848131524146 0.5758081914166656 0  0.803207531481576 0.5956993044911779 0  0.788346427627631 0.6152315905793139 0  0.7730104533638789 0.634393284162254 0  0.7572088465076731 0.6531728429523989 0  0.7409511253561784 0.6715589548456731 0  0.7242470829527524 0.6895405447357167 0  0.7071067811878892 0.707106781185206 0  0.6895405447383979 0.7242470829501997 0  0.6715589548483216 0.7409511253537779 0  0.6531728429550462 0.7572088465053896 0  0.6343932841648875 0.7730104533617177 0  0.6152315905818851 0.7883464276256243 0  0.5956993044937002 0.8032075314797054 0  0.5758081914190851 0.8175848131507105 0  0.5555702330208091 0.8314696123017388 0  0.5349976198882627 0.844853565248969 0  0.514102744194325 0.8577286099996108 0  0.492898192230838 0.8700869911081144 0  0.4713967368270084 
[...]
<PointData  Scalars="f_14"> 
<DataArray  type="Float64"  Name="f_14"  format="ascii">0.0000000000000000e+00  0.0000000000000000e+00  0.0000000000000000e+00  0.0000000000000000e+00  0.0000000000000000e+00  0.0000000000000000e+00  0.0000000000000000e+00  0.0000000000000000e+00  0.0000000000000000e+00  0.0000000000000000e+00  0.0000000000000000e+00  0.0000000000000000e+00  0.0000000000000000e+00  0.0000000000000000e+00  0.0000000000000000e+00  0.0000000000000000e+00  0.0000000000000000e+00  0.0000000000000000e+00  0.0000000000000000e+00  0.0000000000000000e+00  0.0000000000000000e+00  0.0000000000000000e+00  0.0000000000000000e+00  0.0000000000000000e+00  0.0000000000000000e+00  0.0000000000000000e+00  0.0000000000000000e+00  0.0000000000000000e+00  0.0000000000000000e+00  0.0000000000000000e+00  0.0000000000000000e+00  0.0000000000000000e+00  0.0000000000000000e+00  0.0000000000000000e+00  0.0000000000000000e+00  0.0000000000000000e+00  0.0000000000000000e+00  0.0000000000000000e+00  0.0000000000000000e+00  0.0000000000000000e+00  0.0000000000000000e+00  0.0000000000000000e+00  0.0000000000000000e+00  0.0000000000000000e+00  0.0000000000000000e+00  0.0000000000000000e+00  0.0000000000000000e+00  0.0000000000000000e+00  0.0000000000000000e+00  0.0000000000000000e+00  0.0000000000000000e+00  0.0000000000000000e+00  0.0000000000000000e+00  0.0000000000000000e+00  0.0000000000000000e+00  0.0000000000000000e+00  0.0000000000000000e+00  0.0000000000000000e+00  0.0000000000000000e+00  0.0000000000000000e+00  0.0000000000000000e+00  0.0000000000000000e+00  0.0000000000000000e+00  0.0000000000000000e+00  0.0000000000000000e+00  0.0000000000000000e+00  0.0000000000000000e+00  0.0000000000000000e+00  0.0000000000000000e+00  0.0000000000000000e+00  0.0000000000000000e+00  0.0000000000000000e+00  0.0000000000000000e+00  0.0000000000000000e+00  0.0000000000000000e+00  0.0000000000000000e+00  0.0000000000000000e+00  0.0000000000000000e+00  0.0000000000000000e+00  0.0000000000000000e+00  0.0000000000000000e+00  0.0000000000000000e+00  0.0000000000000000e+00  0.0000000000000000e+00  0.0000000000000000e+00  0.0000000000000000e+00  0.0000000000000000e+00  0.0000000000000000e+00  0.0000000000000000e+00  0.0000000000000000e+00  0.0000000000000000e+00  0.0000000000000000e+00  0.0000000000000000e+00  0.0000000000000000e+00  0.0000000000000000e+00  0.0000000000000000e+00  0.0000000000000000e+00  0.0000000000000000e+00  0.0000000000000000e+00  0.0000000000000000e+00  0.0000000000000000e+00  0.0000000000000000e+00  0.0000000000000000e+00  0.0000000000000000e+00  0.0000000000000000e+00  0.0000000000000000e+00  0.0000000000000000e+00  0.0000000000000000e+00  0.0000000000000000e+00  0.0000000000000000e+00  0.0000000000000000e+00  0.0000000000000000e+00  0.0000000000000000e+00  0.0000000000000000e+00  0.0000000000000000e+00  0.0000000000000000e+00  0.0000000000000000e+00  0.0000000000000000e+00  0.0000000000000000e+00  0.0000000000000000e+00  0.0000000000000000e+00  0.0000000000000000e+00  0.0000000000000000e+00  0.0000000000000000e+00  0.0000000000000000e+00  0.0000000000000000e+00  0.0000000000000000e+00  0.0000000000000000e+00  0.0000000000000000e+00  0.0000000000000000e+00  0.0000000000000000e+00  0.0000000000000000e+00  0.0000000000000000e+00  0.0000000000000000e+00  0.0000000000000000e+00  0.0000000000000000e+00  0.0000000000000000e+00  0.0000000000000000e+00  0.0000000000000000e+00  0.0000000000000000e+00  0.0000000000000000e+00  0.0000000000000000e+00  0.0000000000000000e+00  0.0000000000000000e+00  0.0000000000000000e+00  0.0000000000000000e+00  0.0000000000000000e+00  0.0000000000000000e+00  0.0000000000000000e+00  0.0000000000000000e+00  0.0000000000000000e+00  0.0000000000000000e+00  0.0000000000000000e+00  0.0000000000000000e+00  0.0000000000000000e+00  0.0000000000000000e+00  0.0000000000000000e+00  0.0000000000000000e+00  0.0000000000000000e+00  0.0000000000000000e+00  0.0000000000000000e+00  0.0000000000000000e+00  0.0000000000000000e+00  0.0000000000000000e+00  0.0000000000000000e+00  0.0000000000000000e+00  0.0000000000000000e+00  0.0000000000000000e+00  0.0000000000000000e+00  0.0000000000000000e+00  0.0000000000000000e+00  0.0000000000000000e+00  0.0000000000000000e+00  0.0000000000000000e+00  0.0000000000000000e+00  0.0000000000000000e+00  0.0000000000000000e+00  0.0000000000000000e+00  0.0000000000000000e+00  0.0000000000000000e+00  0.0000000000000000e+00  0.0000000000000000e+00  0.0000000000000000e+00  0.0000000000000000e+00  0.0000000000000000e+00  0.0000000000000000e+00  0.0000000000000000e+00  0.0000000000000000e+00  0.0000000000000000e+00  0.0000000000000000e+00  0.0000000000000000e+00  0.0000000000000000e+00  0.0000000000000000e+00  0.0000000000000000e+00  0.0000000000000000e+00  0.0000000000000000e+00  0.0000000000000000e+00  0.0000000000000000e+00  0.0000000000000000e+00  0.0000000000000000e+00  0.0000000000000000e+00  0.0000000000000000e+00  0.0000000000000000e+00  0.0000000000000000e+00  0.0000000000000000e+00  0.0000000000000000e+00  0.0000000000000000e+00  0.0000000000000000e+00  0.0000000000000000e+00  0.0000000000000000e+00  0.0000000000000000e+00  0.0000000000000000e+00  0.0000000000000000e+00  0.0000000000000000e+00  0.0000000000000000e+00  0.0000000000000000e+00  0.0000000000000000e+00  0.0000000000000000e+00  0.0000000000000000e+00  0.0000000000000000e+00  0.0000000000000000e+00  0.0000000000000000e+00  0.0000000000000000e+00  0.0000000000000000e+00  0.0000000000000000e+00  0.0000000000000000e+00  0.0000000000000000e+00  0.0000000000000000e+00  0.0000000000000000e+00  0.0000000000000000e+00  0.0000000000000000e+00  0.0000000000000000e+00  0.0000000000000000e+00  0.0000000000000000e+00  0.0000000000000000e+00  0.0000000000000000e+00  0.0000000000000000e+00  0.0000000000000000e+00  0.0000000000000000e+00  0.0000000000000000e+00  0.0000000000000000e+00  0.0000000000000000e+00  0.0000000000000000e+00  0.0000000000000000e+00  0.0000000000000000e+00  0.0000000000000000e+00  0.0000000000000000e+00  0.0000000000000000e+00  0.0000000000000000e+00  0.0000000000000000e+00  0.0000000000000000e+00  0.0000000000000000e+00  0.0000000000000000e+00  0.0000000000000000e+00  0.0000000000000000e+00  0.0000000000000000e+00  2.1375635437452295e-01  2.2318619557805591e-01  2.4290505211895905e-01  2.5281093916790404e-01  2.4355119371832046e-01  2.2307243161957441e-01  2.4742031449415997e-01  2.2838801711074949e-01  2.4781813501356634e-01  2.3665762794716907e-01  2.3611534090613104e-01  2.4759459518306587e-01  2.4463134894883676e-01  2.8345184395326978e-01  2.4665527439612861e-01  2.6014487478281967e-01  2.3643140212929503e-01  2.4402594501697503e-01  2.2139606748141200e-01  2.3761237591685311e-01  2.7330646001189629e-01  2.7057468912361271e-01  2.4483583649168056e-01  2.3311442068778276e-01  2.2748093420521265e-01  2.3353125165682681e-01  2.5912568204070735e-01  1.8926900633640636e-01  2.5532336060093586e-01  2.4260133067305151e-01  2.4289834471692026e-01  2.6345771363160353e-01  2.3859503930653334e-01  2.4250743738027727e-01  2.3530443085746938e-01  2.2825847680248640e-01  2.1737534003866590e-01  2.4774140150187890e-01  2.3625378811074590e-01  2.4775734321462572e-01  2.7459456944015670e-01  2.4081939003143057e-01  2.2832356413203819e-01  2.5040260255643759e-01  2.4938001373305177e-01  2.4216507900305384e-01  2.3497261592996682e-01  2.4561038313178959e-01  2.1737444430042155e-01  2.4087139404708238e-01  2.4447105535717206e-01  2.4555733675908190e-01  2.5040565349959509e-01  2.3553661111535890e-01  2.3788449177371238e-01  2.4529298711776393e-01  2.5015240240360281e-01  2.3053188073726352e-01  2.3373440082471036e-01  2.3617198332675848e-01  2.3604998853720005e-01  2.4132833575051518e-01  2.4914104958374675e-01  2.4872544621662929e-01  2.3624433862069713e-01  2.4461837107912948e-01  2.4388865895964565e-01  2.4591264425260823e-01  2.2583453532676792e-01  2.5686642518661779e-01  2.3394832411187705e-01  2.4531565733352279e-01  2.2690907460956453e-01  2.4119986453767903e-01  2.2267659099943868e-01  2.4553318828545598e-01  2.2417945691868227e-01  2.4934687983017148e-01  2.8490391467512838e-01  2.5090304352328263e-01  2.3603751134136955e-01  2.3300476696251565e-01  2.4928319203563590e-01  2.6208387782297149e-01  2.3304450736350638e-01  2.3681556922779559e-01  2.2422288395713200e-01  2.6277898683769429e-01  2.1489554537554600e-01  2.4416085089130019e-01  2.3925321596163046e-01  2.2703793278200071e-01  2.2047325868133308e-01  2.4319796154813342e-01  2.3534018782403940e-01  2.3181810451467005e-01  2.4734520035971855e-01  2.2984882619505662e-01  2.3757658393139569e-01  2.4555140827326682e-01  2.4732986065335721e-01  2.2888982114883322e-01  2.4645638099745970e-01  2.7498801316587085e-01  2.5167514789382051e-01  2.4377839131458107e-01  2.2672213982295597e-01  2.6708518015046911e-01  2.4557451188360052e-01  2.7090567871910826e-01  2.3887210139562512e-01  2.4508530531823755e-01  2.1884787238964928e-01  2.3011418183831325e-01  2.8327949193272794e-01  2.3768662942121530e-01  2.2474720400533790e-01  2.4246333381174678e-01  2.3452273592880110e-01  2.4603104172855278e-01  2.4556212991923118e-01  2.2007310340585565e-01  2.5098215475544311e-01  2.3683160455756311e-01  2.5074340371807213e-01  2.4720763797516399e-01  2.2030763326816574e-01  2.4458265365213666e-01  2.4291507296974679e-01  4.9083742609631981e-01  4.8925168501342703e-01  7.4285067217225886e-01  7.4187479768977294e-01  1.0013099157474883e+00  9.9930585408110317e-01  1.2656401306883216e+00  1.2632605391835081e+00  1.5355462400685782e+00  1.5336255754515524e+00  1.8110979299767060e+00  1.8085528145610021e+00  2.0911231326039403e+00  2.0889843496460734e+00  2.3753072986663084e+00  2.3725930147903602e+00  2.6620790174717337e+00  2.6597593538337692e+00  2.9505692196273787e+00  2.9476956735862614e+00  3.2386926696374712e+00  3.2362399713218548e+00  3.5250955403982021e+00  3.5220956566382986e+00  3.8072319978788354e+00  3.8047211013678344e+00  4.0834144010843580e+00  4.0803446360260134e+00  4.3507650146133132e+00  4.3482975466721632e+00  4.6074873440732915e+00  4.6044278331253894e+00  4.8505574321143161e+00  4.8482585717437994e+00  5.0783422577586244e+00  5.0753942477826879e+00  5.2878880298106354e+00  5.2859002685039904e+00  5.4780111737992518e+00  5.4752920978070101e+00  5.6460445852517065e+00  5.6445188676393991e+00  5.7915173440625232e+00  5.7891540108746167e+00  5.9122358791452010e+00  5.9113208937132917e+00  6.0086484745828770e+00  6.0067690085495808e+00  6.0791677915331395e+00  6.0789984521193761e+00  6.1252845142293602e+00  6.1240097605982129e+00  6.1460803050939834e+00  6.1467665965013971e+00  6.1441119943518236e+00  6.1435470999319932e+00  6.1191176536382157e+00  6.1207349852259707e+00  6.0746407166272940e+00  6.0748675211513383e+00  6.0109924593712503e+00  6.0135744815126095e+00  5.9325282856250094e+00  5.9335990431742216e+00  5.8399920261468585e+00  5.8435265475075928e+00  5.7382996604049987e+00  5.7402324781730911e+00  5.6284482488198835e+00  5.6328765036422821e+00  5.5156115444660836e+00  5.5183877963196055e+00  5.4008430126333939e+00  5.4060621367755939e+00  5.2892486768458573e+00  5.2928125298126245e+00  5.1817447528084974e+00  5.1876130041801201e+00  5.0830498326731455e+00  5.0873099150912786e+00  4.9937704288278670e+00  5.0001144837060982e+00  4.9179492149113928e+00  4.9227823503735246e+00  4.8557460025144348e+00  4.8623695955229804e+00  4.8102907207610484e+00  4.8155475474479061e+00  4.7812052067887647e+00  4.7878984454480005e+00  4.7705361395360919e+00  4.7760483292200560e+00  4.7773284991825919e+00  4.7838773300667485e+00  4.7949753649655440e+00  4.8024504256842304e+00  4.8207842744446499e+00  4.8505826356763349e+00  4.8800423094713556e+00  4.9201374141132828e+00  4.9596979375735861e+00  5.0088119152701305e+00  5.0571095823994261e+00  5.1136482642556738e+00  5.1690168116921384e+00  5.2311114760479454e+00  5.1877745948474248e+00  5.2916266368452725e+00  5.2415822560554668e+00  5.3086083382581650e+00  5.2768423354959442e+00  5.3670922664361429e+00  5.3287472907068745e+00  5.3986386020668782e+00  5.3776388478681927e+00  5.4546954811615818e+00  5.4273505752733300e+00  5.4978230692496002e+00  5.4864727025706914e+00  5.5511163144788478e+00  5.5337537199961799e+00  5.6023656779762758e+00  5.5992753259678523e+00  5.6526205092423547e+00  5.6439422811408129e+00  5.7081596259996710e+00  5.7117142105371244e+00  5.7551648239696505e+00  5.7536382561202073e+00  5.8109033772089003e+00  5.8193147580349143e+00  5.8545121188581790e+00  5.8584211230176670e+00  5.9062234163512874e+00  5.9175874007534137e+00  5.9463530696537932e+00  5.9538540621943445e+00  5.9898002313028575e+00  6.0021562832519955e+00  6.0264309924228483e+00  6.0356116545990020e+00  6.0231393636297117e+00  6.0574936950939682e+00  6.0688855167926086e+00  6.0201384614173943e+00  6.0836308965487715e+00  6.0424348244489092e+00  6.1003153046419270e+00  6.0673231880335106e+00  6.1171703417510050e+00  6.0927267633596713e+00  6.0856096796897177e+00  6.0847505357638569e+00  6.1321326830580771e+00  6.1162816121870920e+00  6.1054638219009307e+00  6.0991580174488229e+00  6.1276506300083220e+00  6.1274296239556847e+00  6.1429132501516968e+00  6.1354139060524968e+00  6.1470744552688714e+00  6.1474246228275700e+00  6.1264971692867149e+00  6.1236901058936883e+00  6.1491412160106949e+00  6.1478032760462744e+00  6.1397117885348820e+00  6.1421130480669257e+00  6.1495790075916892e+00  6.1288792374248962e+00  6.1279542078305136e+00  6.1470977070274779e+00  6.1429811342141356e+00  6.1255458392926201e+00  6.1391978821384363e+00  6.1098704458975925e+00  6.1092339520245993e+00  6.1190537542515946e+00  6.1245322702867533e+00  6.1106398132136563e+00  6.0949953934997643e+00  6.1137477249739405e+00  6.0671830960865734e+00  6.0653148369976275e+00  6.0725852568108207e+00  6.0779031993604775e+00  6.0482726894786918e+00  6.0709263776847484e+00  6.1269582092073724e+00  6.0875295936415403e+00  6.1358808762290993e+00  6.0991008341703141e+00  6.1415512643736072e+00  6.1064487934939340e+00  6.1447469797642595e+00  6.1101402863744054e+00  6.1459583537213591e+00  6.1104780047924123e+00  6.1453701433708749e+00  6.1074888417055826e+00  6.1428548462857382e+00  6.1009231496279401e+00  6.1379778178927813e+00  6.0902649312175026e+00  6.1300139977545482e+00  6.0747525911290881e+00  6.1179756741741995e+00  6.0534095201639335e+00  6.1006503523680253e+00  6.0250834415361130e+00  6.0766474468148362e+00  5.9884931328605120e+00  6.0444522015271094e+00  5.9422808551957811e+00  6.0024849624165375e+00  5.9688090617579492e+00  6.0501086059303155e+00  5.9903579849540947e+00  6.0688971753801217e+00  6.0171705534246707e+00  6.0905334984041790e+00  6.0474878183021357e+00  6.1132009784277628e+00  6.0791774463673818e+00  6.1347691657150536e+00  6.1098012416209162e+00  6.1528633516339912e+00  6.1366929830319101e+00  6.1649428064863949e+00  6.1570442897811546e+00  6.1683852529379193e+00  6.1679958935798673e+00  6.1605748799228204e+00  6.1667314209065109e+00  6.1489464225033812e+00  6.1389909810996599e+00  6.1505705854392758e+00  6.1012941656537309e+00  6.1170585820614560e+00  6.0454070547817693e+00  6.0640484765048202e+00  6.0477468679192024e+00  5.9990515361146644e+00  5.9945500171372421e+00  6.0121371850197116e+00  6.0018152358605441e+00  5.8850685820888806e+00  5.9491636944256010e+00  5.9695864591832963e+00  5.9897735133664991e+00  5.9042845404614424e+00  5.8959067135744343e+00  5.8155159377559729e+00  5.8829674643032241e+00  6.0005433429495980e+00  5.9382273529810279e+00  5.8068352991115439e+00  5.8024985096175037e+00  5.8608243672533709e+00  5.9826527300025338e+00  5.9085293787783435e+00  5.8724842414843961e+00  5.8929065288775790e+00  5.8442798782081153e+00  6.0176325502863959e+00  5.9468008762055575e+00  5.8169607435109354e+00  5.8573878622263846e+00  5.9767870859039807e+00  5.8892372779646891e+00  5.7822977024136488e+00  5.7689912610611449e+00  5.7886232175861032e+00  6.0055386492139204e+00  5.9055221547056931e+00  5.9063471232268174e+00  5.7830580640886904e+00  5.7798457280912743e+00  5.7482561936280012e+00  5.7807381870057100e+00  5.9133641611012857e+00  5.8049564104592672e+00  5.7531944068209837e+00  5.7726040554170241e+00  5.9304937504995729e+00  5.8214595209639652e+00  5.9061098858189807e+00  5.7840092507620851e+00  5.6441482897813788e+00  5.6473002666892578e+00  5.6736798637292960e+00  5.6883531365865689e+00  5.8306478405418183e+00  5.6948667087114710e+00  5.8327542210736958e+00  5.6933403256071902e+00  6.0183810536335338e+00  5.9505527190601404e+00  5.9089485257234706e+00  5.8206036433886492e+00  5.7670371908706874e+00  5.6591616697820566e+00  5.5937020439666094e+00  5.7787130665615587e+00  5.9124906749210160e+00  5.7876693166371211e+00  5.6340256003042049e+00  5.6251892014247113e+00  5.6370294166990167e+00  5.6369231794947821e+00  5.7836826665557419e+00  5.6282287588762339e+00  5.8278328729438025e+00  5.6837420811559021e+00  5.7719822310002913e+00  5.6108239422421136e+00  5.5339768449114306e+00  5.4676402813941500e+00  5.3906589826029121e+00  5.4815954324208365e+00  5.4806225155527271e+00  5.4597176037623907e+00  5.4456197742397894e+00  5.4655135473249983e+00  5.8157566130319047e+00  5.6658898267181153e+00  5.7523390062657525e+00  5.5844568742732807e+00  6.1437883946636651e+00  5.7962226606209564e+00  5.6394602396499884e+00  5.9373855943488953e+00  5.7243735795138271e+00  5.5487598535578098e+00  5.3893954078812403e+00  5.3457283581854798e+00  5.5032695442715100e+00  5.2915212325486518e+00  5.2953102500859623e+00  5.2894503972598157e+00  5.2480639445139312e+00  5.1602077057360365e+00  5.2611483504800107e+00  5.2412325282567371e+00  5.7687667772982856e+00  5.6040052020723818e+00  5.4547265838363499e+00  5.4109900846393808e+00  5.2436046064115267e+00  5.1915616075656272e+00  5.3568486778657123e+00  5.1285073243377806e+00  5.2917881543026803e+00  5.0540477486231499e+00  5.4474527532989825e+00  5.2263403172053717e+00  5.8711119622532495e+00  5.1689151438690626e+00  5.0864674589987882e+00  5.0751589502656467e+00  5.0877783745889804e+00  5.0029813785496389e+00  4.9051354750112406e+00  5.2152858779239297e+00  4.9678064911810544e+00  5.3807366792000906e+00  5.1497420670290879e+00  6.1641812616028648e+00  5.0398347720181871e+00  5.0553344213593716e+00  5.0137609866190740e+00  5.0081958107634783e+00  5.1268437419139676e+00  4.8694537227810519e+00  5.3025423328265333e+00  5.0613033426981495e+00  4.8947001391752094e+00  4.7969326386996611e+00  4.9606522648100633e+00  4.6869951181585225e+00  6.1570676420087009e+00  4.8633459505878109e+00  4.8595916795354075e+00  5.0886366842842943e+00  4.8299577507763258e+00  4.9125630587425722e+00  4.8191227087382051e+00  4.8296083792921607e+00  4.6982349773640344e+00  4.5910761815733840e+00  4.7587345604832150e+00  4.8474982262642747e+00  4.5647803790096679e+00  4.4717732143006783e+00  4.6354954906445940e+00  4.6187272596062074e+00  5.8814898695719791e+00  5.7484023204319943e+00  4.6415792886585594e+00  4.7203429281747260e+00  4.6218551839587025e+00  4.6127055693403634e+00  4.7216596048669333e+00  4.4302950460215884e+00  4.3403517711423296e+00  4.4997074723388950e+00  6.0625280722696946e+00  4.5807250197170202e+00  4.5857771966144112e+00  5.7168337726187302e+00  4.4098792253289254e+00  5.0599088362032116e+00  4.7948392955102745e+00  6.1370990149105236e+00  6.0986382187525816e+00  4.5830877839539568e+00  4.2836770768268977e+00  6.0412722051287364e+00  4.4385670052507074e+00  4.5127785597297754e+00  4.1969609797301155e+00  4.3514844828226114e+00  4.3640858126474527e+00  4.3493907883343104e+00  4.3265802125983370e+00  4.3259556539308921e+00  4.4318862210612338e+00  4.1252081447012632e+00  4.8651444309677752e+00  4.6463984959663875e+00  4.9468108241483932e+00  4.6719324408578844e+00  4.1234852152278458e+00  4.0418854894939322e+00  4.1910964488660580e+00  4.2219014451180987e+00  4.2909510673707016e+00  6.1285740278777689e+00  6.0821447613910697e+00  5.3600409322140923e+00  5.5176839934056314e+00  4.2683235015358072e+00  4.8206745937535116e+00  4.5363774843823821e