<?xml version="1.0"?>
<VTKFile type="UnstructuredGrid"  version="0.1"  >
<UnstructuredGrid>
<Piece  NumberOfPoints="6201" NumberOfCells="12144">
<Points>
<DataArray  type="Float64"  NumberOfComponents="3"  format="ascii">0 1 0  0 -1 0  1 0 0  -1 0 0  -0.02454122852287776 0.999698818696205 0  -0.04906767432734942 0.9987954562051757 0  -0.07356456359955947 0.9972904566786982 0  -0.098017140329409 0.9951847266722118 0  -0.1224106751990381 0.9924795345987319 0  -0.14673047445516 0.9891765099648109 0  -0.1709618887600765 0.9852776423889802 0  -0.1950903220158731 0.9807852804032812 0  -0.2191012401565635 0.9757021300385973 0  -0.2429801799028944 0.9700312531946366 0  -0.2667127574744887 0.9637760657955532 0  -0.2902846772539959 0.9569403357323504 0  -0.3136817403983533 0.9495281805932144 0  -0.3368898533916172 0.9415440651832365 0  -0.3598950365343229 0.9329927988349955 0  -0.3826834323643665 0.9238795325115864 0  -0.4052413140042221 0.914209755703871 0  -0.4275550934294596 0.9039892931238324 0  -0.4496113296537328 0.8932243011959552 0  -0.4713967368250455 0.881921264348864 0  -0.4928981922288082 0.8700869911092642 0  -0.5141027441922073 0.8577286100008801 0  -0.5349976198860099 0.8448535652503956 0  -0.5555702330184784 0.8314696123032962 0  -0.5758081914166656 0.8175848131524146 0  -0.5956993044911779 0.803207531481576 0  -0.6152315905793139 0.788346427627631 0  -0.634393284162254 0.7730104533638789 0  -0.6531728429523989 0.7572088465076731 0  -0.6715589548456731 0.7409511253561784 0  -0.6895405447357167 0.7242470829527524 0  -0.707106781185206 0.7071067811878892 0  -0.7242470829501997 0.6895405447383979 0  -0.7409511253537779 0.6715589548483216 0  -0.7572088465053896 0.6531728429550462 0  -0.7730104533617177 0.6343932841648875 0  -0.7883464276256243 0.6152315905818851 0  -0.8032075314797054 0.5956993044937002 0  -0.8175848131507105 0.5758081914190851 0  -0.8314696123017388 0.5555702330208091 0  -0.844853565248969 0.5349976198882627 0  -0.8577286099996108 0.514102744194325 0  -0.8700869911081144 0.492898192230838 0  -0.8819212643478147 0.4713967368270084 0  -0.8932243011950445 0.449611329655542 0  -0.9039892931230238 0.4275550934311692 0  -0.9142097557031724 0.4052413140057979 0  -0.9238795325109728 0.3826834323658478 0  -0.9329927988344826 0.3598950365356525 0  -0.9415440651828083 0.336889853392814 0  -0.9495281805928644 0.3136817403994129 0  -0.9569403357320729 0.2902846772549104 0  -0.9637760657953238 0.2667127574753179 0  -0.9700312531944527 0.2429801799036284 0  -0.9757021300384615 0.2191012401571683 0  -0.9807852804031804 0.1950903220163801 0  -0.9852776423889043 0.1709618887605145 0  -0.9891765099647555 0.1467304744555333 0  -0.9924795345986914 0.1224106751993664 0  -0.9951847266721815 0.09801714032971656 0  -0.9972904566786818 0.07356456359978128 0  -0.9987954562051686 0.04906767432749375 0  -0.9996988186962037 0.02454122852293202 0  -0.999698818696205 -0.02454122852287776 0  -0.9987954562051757 -0.04906767432734942 0  -0.9972904566786982 -0.07356456359955947 0  -0.9951847266722118 -0.098017140329409 0  -0.9924795345987319 -0.1224106751990381 0  -0.9891765099648109 -0.14673047445516 0  -0.9852776423889802 -0.1709618887600765 0  -0.9807852804032812 -0.1950903220158731 0  -0.9757021300385973 -0.2191012401565635 0  -0.9700312531946366 -0.2429801799028944 0  -0.9637760657955532 -0.2667127574744887 0  -0.9569403357323504 -0.2902846772539959 0  -0.9495281805932144 -0.3136817403983533 0  -0.9415440651832365 -0.3368898533916172 0  -0.9329927988349955 -0.3598950365343229 0  -0.9238795325115864 -0.3826834323643665 0  -0.914209755703871 -0.4052413140042221 0  -0.9039892931238324 -0.4275550934294596 0  -0.8932243011959552 -0.4496113296537328 0  -0.881921264348864 -0.4713967368250455 0  -0.8700869911092642 -0.4928981922288082 0  -0.8577286100008801 -0.5141027441922073 0  -0.8448535652503956 -0.5349976198860099 0  -0.8314696123032962 -0.5555702330184784 0  -0.8175848131524146 -0.5758081914166656 0  -0.803207531481576 -0.5956993044911779 0  -0.788346427627631 -0.6152315905793139 0  -0.7730104533638789 -0.634393284162254 0  -0.7572088465076731 -0.6531728429523989 0  -0.7409511253561784 -0.6715589548456731 0  -0.7242470829527524 -0.6895405447357167 0  -0.7071067811878892 -0.707106781185206 0  -0.6895405447383979 -0.7242470829501997 0  -0.6715589548483216 -0.7409511253537779 0  -0.6531728429550462 -0.7572088465053896 0  -0.6343932841648875 -0.7730104533617177 0  -0.6152315905818851 -0.7883464276256243 0  -0.5956993044937002 -0.8032075314797054 0  -0.5758081914190851 -0.8175848131507105 0  -0.5555702330208091 -0.8314696123017388 0  -0.5349976198882627 -0.844853565248969 0  -0.514102744194325 -0.8577286099996108 0  -0.492898192230838 -0.8700869911081144 0  -0.4713967368270084 -0.8819212643478147 0  -0.449611329655542 -0.8932243011950445 0  -0.4275550934311692 -0.9039892931230238 0  -0.4052413140057979 -0.9142097557031724 0  -0.3826834323658478 -0.9238795325109728 0  -0.3598950365356525 -0.9329927988344826 0  -0.336889853392814 -0.9415440651828083 0  -0.3136817403994129 -0.9495281805928644 0  -0.2902846772549104 -0.9569403357320729 0  -0.2667127574753179 -0.9637760657953238 0  -0.2429801799036284 -0.9700312531944527 0  -0.2191012401571683 -0.9757021300384615 0  -0.1950903220163801 -0.9807852804031804 0  -0.1709618887605145 -0.9852776423889043 0  -0.1467304744555333 -0.9891765099647555 0  -0.1224106751993664 -0.9924795345986914 0  -0.09801714032971656 -0.9951847266721815 0  -0.07356456359978128 -0.9972904566786818 0  -0.04906767432749375 -0.9987954562051686 0  -0.02454122852293202 -0.9996988186962037 0  0.02454122852287776 -0.999698818696205 0  0.04906767432734942 -0.9987954562051757 0  0.07356456359955947 -0.9972904566786982 0  0.098017140329409 -0.9951847266722118 0  0.1224106751990381 -0.9924795345987319 0  0.14673047445516 -0.9891765099648109 0  0.1709618887600765 -0.9852776423889802 0  0.1950903220158731 -0.9807852804032812 0  0.2191012401565635 -0.9757021300385973 0  0.2429801799028944 -0.9700312531946366 0  0.2667127574744887 -0.9637760657955532 0  0.2902846772539959 -0.9569403357323504 0  0.3136817403983533 -0.9495281805932144 0  0.3368898533916172 -0.9415440651832365 0  0.3598950365343229 -0.9329927988349955 0  0.3826834323643665 -0.9238795325115864 0  0.4052413140042221 -0.914209755703871 0  0.4275550934294596 -0.9039892931238324 0  0.4496113296537328 -0.8932243011959552 0  0.4713967368250455 -0.881921264348864 0  0.4928981922288082 -0.8700869911092642 0  0.5141027441922073 -0.8577286100008801 0  0.5349976198860099 -0.8448535652503956 0  0.5555702330184784 -0.8314696123032962 0  0.5758081914166656 -0.8175848131524146 0  0.5956993044911779 -0.803207531481576 0  0.6152315905793139 -0.788346427627631 0  0.634393284162254 -0.7730104533638789 0  0.6531728429523989 -0.7572088465076731 0  0.6715589548456731 -0.7409511253561784 0  0.6895405447357167 -0.7242470829527524 0  0.707106781185206 -0.7071067811878892 0  0.7242470829501997 -0.6895405447383979 0  0.7409511253537779 -0.6715589548483216 0  0.7572088465053896 -0.6531728429550462 0  0.7730104533617177 -0.6343932841648875 0  0.7883464276256243 -0.6152315905818851 0  0.8032075314797054 -0.5956993044937002 0  0.8175848131507105 -0.5758081914190851 0  0.8314696123017388 -0.5555702330208091 0  0.844853565248969 -0.5349976198882627 0  0.8577286099996108 -0.514102744194325 0  0.8700869911081144 -0.492898192230838 0  0.8819212643478147 -0.4713967368270084 0  0.8932243011950445 -0.449611329655542 0  0.9039892931230238 -0.4275550934311692 0  0.9142097557031724 -0.4052413140057979 0  0.9238795325109728 -0.3826834323658478 0  0.9329927988344826 -0.3598950365356525 0  0.9415440651828083 -0.336889853392814 0  0.9495281805928644 -0.3136817403994129 0  0.9569403357320729 -0.2902846772549104 0  0.9637760657953238 -0.2667127574753179 0  0.9700312531944527 -0.2429801799036284 0  0.9757021300384615 -0.2191012401571683 0  0.9807852804031804 -0.1950903220163801 0  0.9852776423889043 -0.1709618887605145 0  0.9891765099647555 -0.1467304744555333 0  0.9924795345986914 -0.1224106751993664 0  0.9951847266721815 -0.09801714032971656 0  0.9972904566786818 -0.07356456359978128 0  0.9987954562051686 -0.04906767432749375 0  0.9996988186962037 -0.02454122852293202 0  0.999698818696205 0.02454122852287776 0  0.9987954562051757 0.04906767432734942 0  0.9972904566786982 0.07356456359955947 0  0.9951847266722118 0.098017140329409 0  0.9924795345987319 0.1224106751990381 0  0.9891765099648109 0.14673047445516 0  0.9852776423889802 0.1709618887600765 0  0.9807852804032812 0.1950903220158731 0  0.9757021300385973 0.2191012401565635 0  0.9700312531946366 0.2429801799028944 0  0.9637760657955532 0.2667127574744887 0  0.9569403357323504 0.2902846772539959 0  0.9495281805932144 0.3136817403983533 0  0.9415440651832365 0.3368898533916172 0  0.9329927988349955 0.3598950365343229 0  0.9238795325115864 0.3826834323643665 0  0.914209755703871 0.4052413140042221 0  0.9039892931238324 0.4275550934294596 0  0.8932243011959552 0.4496113296537328 0  0.881921264348864 0.4713967368250455 0  0.8700869911092642 0.4928981922288082 0  0.8577286100008801 0.5141027441922073 0  0.8448535652503956 0.5349976198860099 0  0.8314696123032962 0.5555702330184784 0  0.8175848131524146 0.5758081914166656 0  0.803207531481576 0.5956993044911779 0  0.788346427627631 0.6152315905793139 0  0.7730104533638789 0.634393284162254 0  0.7572088465076731 0.6531728429523989 0  0.7409511253561784 0.6715589548456731 0  0.7242470829527524 0.6895405447357167 0  0.7071067811878892 0.707106781185206 0  0.6895405447383979 0.7242470829501997 0  0.6715589548483216 0.7409511253537779 0  0.6531728429550462 0.7572088465053896 0  0.6343932841648875 0.7730104533617177 0  0.6152315905818851 0.7883464276256243 0  0.5956993044937002 0.8032075314797054 0  0.5758081914190851 0.8175848131507105 0  0.5555702330208091 0.8314696123017388 0  0.5349976198882627 0.844853565248969 0  0.514102744194325 0.8577286099996108 0  0.492898192230838 0.8700869911081144 0  0.4713967368270084 
[...]
<PointData  Scalars="f_14"> 
<DataArray  type="Float64"  Name="f_14"  format="ascii">0.0000000000000000e+00  0.0000000000000000e+00  0.0000000000000000e+00  0.0000000000000000e+00  0.0000000000000000e+00  0.0000000000000000e+00  0.0000000000000000e+00  0.0000000000000000e+00  0.0000000000000000e+00  0.0000000000000000e+00  0.0000000000000000e+00  0.0000000000000000e+00  0.0000000000000000e+00  0.0000000000000000e+00  0.0000000000000000e+00  0.0000000000000000e+00  0.0000000000000000e+00  0.0000000000000000e+00  0.0000000000000000e+00  0.0000000000000000e+00  0.0000000000000000e+00  0.0000000000000000e+00  0.0000000000000000e+00  0.0000000000000000e+00  0.0000000000000000e+00  0.0000000000000000e+00  0.0000000000000000e+00  0.0000000000000000e+00  0.0000000000000000e+00  0.0000000000000000e+00  0.0000000000000000e+00  0.0000000000000000e+00  0.0000000000000000e+00  0.0000000000000000e+00  0.0000000000000000e+00  0.0000000000000000e+00  0.0000000000000000e+00  0.0000000000000000e+00  0.0000000000000000e+00  0.0000000000000000e+00  0.0000000000000000e+00  0.0000000000000000e+00  0.0000000000000000e+00  0.0000000000000000e+00  0.0000000000000000e+00  0.0000000000000000e+00  0.0000000000000000e+00  0.0000000000000000e+00  0.0000000000000000e+00  0.0000000000000000e+00  0.0000000000000000e+00  0.0000000000000000e+00  0.0000000000000000e+00  0.0000000000000000e+00  0.0000000000000000e+00  0.0000000000000000e+00  0.0000000000000000e+00  0.0000000000000000e+00  0.0000000000000000e+00  0.0000000000000000e+00  0.0000000000000000e+00  0.0000000000000000e+00  0.0000000000000000e+00  0.0000000000000000e+00  0.0000000000000000e+00  0.0000000000000000e+00  0.0000000000000000e+00  0.0000000000000000e+00  0.0000000000000000e+00  0.0000000000000000e+00  0.0000000000000000e+00  0.0000000000000000e+00  0.0000000000000000e+00  0.0000000000000000e+00  0.0000000000000000e+00  0.0000000000000000e+00  0.0000000000000000e+00  0.0000000000000000e+00  0.0000000000000000e+00  0.0000000000000000e+00  0.0000000000000000e+00  0.0000000000000000e+00  0.0000000000000000e+00  0.0000000000000000e+00  0.0000000000000000e+00  0.0000000000000000e+00  0.0000000000000000e+00  0.0000000000000000e+00  0.0000000000000000e+00  0.0000000000000000e+00  0.0000000000000000e+00  0.0000000000000000e+00  0.0000000000000000e+00  0.0000000000000000e+00  0.0000000000000000e+00  0.0000000000000000e+00  0.0000000000000000e+00  0.0000000000000000e+00  0.0000000000000000e+00  0.0000000000000000e+00  0.0000000000000000e+00  0.0000000000000000e+00  0.0000000000000000e+00  0.0000000000000000e+00  0.0000000000000000e+00  0.0000000000000000e+00  0.0000000000000000e+00  0.0000000000000000e+00  0.0000000000000000e+00  0.0000000000000000e+00  0.0000000000000000e+00  0.0000000000000000e+00  0.0000000000000000e+00  0.0000000000000000e+00  0.0000000000000000e+00  0.0000000000000000e+00  0.0000000000000000e+00  0.0000000000000000e+00  0.0000000000000000e+00  0.0000000000000000e+00  0.0000000000000000e+00  0.0000000000000000e+00  0.0000000000000000e+00  0.0000000000000000e+00  0.0000000000000000e+00  0.0000000000000000e+00  0.0000000000000000e+00  0.0000000000000000e+00  0.0000000000000000e+00  0.0000000000000000e+00  0.0000000000000000e+00  0.0000000000000000e+00  0.0000000000000000e+00  0.0000000000000000e+00  0.0000000000000000e+00  0.0000000000000000e+00  0.0000000000000000e+00  0.0000000000000000e+00  0.0000000000000000e+00  0.0000000000000000e+00  0.0000000000000000e+00  0.0000000000000000e+00  0.0000000000000000e+00  0.0000000000000000e+00  0.0000000000000000e+00  0.0000000000000000e+00  0.0000000000000000e+00  0.0000000000000000e+00  0.0000000000000000e+00  0.0000000000000000e+00  0.0000000000000000e+00  0.0000000000000000e+00  0.0000000000000000e+00  0.0000000000000000e+00  0.0000000000000000e+00  0.0000000000000000e+00  0.0000000000000000e+00  0.0000000000000000e+00  0.0000000000000000e+00  0.0000000000000000e+00  0.0000000000000000e+00  0.0000000000000000e+00  0.0000000000000000e+00  0.0000000000000000e+00  0.0000000000000000e+00  0.0000000000000000e+00  0.0000000000000000e+00  0.0000000000000000e+00  0.0000000000000000e+00  0.0000000000000000e+00  0.0000000000000000e+00  0.0000000000000000e+00  0.0000000000000000e+00  0.0000000000000000e+00  0.0000000000000000e+00  0.0000000000000000e+00  0.0000000000000000e+00  0.0000000000000000e+00  0.0000000000000000e+00  0.0000000000000000e+00  0.0000000000000000e+00  0.0000000000000000e+00  0.0000000000000000e+00  0.0000000000000000e+00  0.0000000000000000e+00  0.0000000000000000e+00  0.0000000000000000e+00  0.0000000000000000e+00  0.0000000000000000e+00  0.0000000000000000e+00  0.0000000000000000e+00  0.0000000000000000e+00  0.0000000000000000e+00  0.0000000000000000e+00  0.0000000000000000e+00  0.0000000000000000e+00  0.0000000000000000e+00  0.0000000000000000e+00  0.0000000000000000e+00  0.0000000000000000e+00  0.0000000000000000e+00  0.0000000000000000e+00  0.0000000000000000e+00  0.0000000000000000e+00  0.0000000000000000e+00  0.0000000000000000e+00  0.0000000000000000e+00  0.0000000000000000e+00  0.0000000000000000e+00  0.0000000000000000e+00  0.0000000000000000e+00  0.0000000000000000e+00  0.0000000000000000e+00  0.0000000000000000e+00  0.0000000000000000e+00  0.0000000000000000e+00  0.0000000000000000e+00  0.0000000000000000e+00  0.0000000000000000e+00  0.0000000000000000e+00  0.0000000000000000e+00  0.0000000000000000e+00  0.0000000000000000e+00  0.0000000000000000e+00  0.0000000000000000e+00  0.0000000000000000e+00  0.0000000000000000e+00  0.0000000000000000e+00  0.0000000000000000e+00  0.0000000000000000e+00  0.0000000000000000e+00  0.0000000000000000e+00  0.0000000000000000e+00  0.0000000000000000e+00  0.0000000000000000e+00  0.0000000000000000e+00  0.0000000000000000e+00  0.0000000000000000e+00  0.0000000000000000e+00  0.0000000000000000e+00  0.0000000000000000e+00  0.0000000000000000e+00  0.0000000000000000e+00  0.0000000000000000e+00  0.0000000000000000e+00  0.0000000000000000e+00  0.0000000000000000e+00  0.0000000000000000e+00  0.0000000000000000e+00  0.0000000000000000e+00  0.0000000000000000e+00  0.0000000000000000e+00  0.0000000000000000e+00  0.0000000000000000e+00  0.0000000000000000e+00  0.0000000000000000e+00  7.7982980073421054e-02  8.1773875770328325e-02  8.9554384385490904e-02  9.2822591262522597e-02  8.9404290229616809e-02  8.2119746223921097e-02  8.9617607588704074e-02  8.3509202866629523e-02  9.1107655921971592e-02  8.6922182093780831e-02  8.5705074445750248e-02  9.0358484256414809e-02  8.9559599810583077e-02  1.0473716414723235e-01  8.9682164309420123e-02  9.5738627802257059e-02  8.7025342854421414e-02  8.9534440473738805e-02  8.0746753820948078e-02  8.6717437129089039e-02  1.0039987754001145e-01  9.9457800798731982e-02  8.8682270043982769e-02  8.5106906952201300e-02  8.3392886112875417e-02  8.6155267080236131e-02  9.4002695855004828e-02  6.9415533834871188e-02  9.3449623962307202e-02  8.9539028956755487e-02  8.9578654318661619e-02  9.5988851943120526e-02  8.8000642283581634e-02  8.8790926726560040e-02  8.6660383105172795e-02  8.3229656989856779e-02  8.0081448697963714e-02  9.0829826543574591e-02  8.6440291256223864e-02  9.1044405646118112e-02  1.0088503634883503e-01  8.7293364685581978e-02  8.3642658474722145e-02  9.2475908324647582e-02  9.1621030489681995e-02  8.8383125249676245e-02  8.5344718890544069e-02  8.9624120745406474e-02  7.9955621396515644e-02  8.8428194656599984e-02  8.8919609796057716e-02  8.9619485533578472e-02  9.1965465157644352e-02  8.6634354069701922e-02  8.6143575269457262e-02  8.9603292039109786e-02  9.1769639291290964e-02  8.4945626120076667e-02  8.5579592965836643e-02  8.5592629810339674e-02  8.6988589535064262e-02  8.8324605255248642e-02  9.2062059093872037e-02  9.0542306153680890e-02  8.7138369828996157e-02  8.9545101582937853e-02  8.9930751671197906e-02  8.9631878530487888e-02  8.3227957530527030e-02  9.4143870610188057e-02  8.5754318531090418e-02  8.9833384317521317e-02  8.3823570935606578e-02  8.8694023907409589e-02  8.1765225406792236e-02  9.0347917015086765e-02  8.1466215671114131e-02  9.0298267778934183e-02  1.0411285269102435e-01  9.2314346489011490e-02  8.6629681500520417e-02  8.4859978921468626e-02  9.1802637213265065e-02  9.6124161549953110e-02  8.5130734364588206e-02  8.6782311740820656e-02  8.2763820991583428e-02  9.6464619864893270e-02  7.8003877517060782e-02  8.9603863209616483e-02  8.8113088983494584e-02  8.3105363354843614e-02  8.1486352183025607e-02  8.9570352652247748e-02  8.6782841106342809e-02  8.4901295363646864e-02  8.9609954241248319e-02  8.4527695256245122e-02  8.6924152721611261e-02  8.9615807327312058e-02  8.9982919002506337e-02  8.4095507984100065e-02  9.0572402886024944e-02  9.9627598350325128e-02  9.2499037234279935e-02  8.9547587486377700e-02  8.2232894363195905e-02  9.7487179610032795e-02  8.9631725153381220e-02  9.9610124538296041e-02  8.7716464991119028e-02  8.9037656010706484e-02  8.0384998502851107e-02  8.4613098395453959e-02  1.0258074722946502e-01  8.7632390861550058e-02  8.2253208548287368e-02  8.9553446756303917e-02  8.5582572360170611e-02  8.9848916880018240e-02  8.9621373294269363e-02  8.0713951119274180e-02  9.2534147199912348e-02  8.6777923168588941e-02  9.1456454612037011e-02  8.9644919208622303e-02  8.0383712472288801e-02  8.9081653746814912e-02  8.9592221554373672e-02  1.8076134208256522e-01  1.8016040133397332e-01  2.7291767345937040e-01  2.7252625588832824e-01  3.6669449887623828e-01  3.6600929753399497e-01  4.6174936602996425e-01  4.6083920113188087e-01  5.5774793315445592e-01  5.5712513626717453e-01  6.5476681535567860e-01  6.5379578915353664e-01  7.5227219028014525e-01  7.5160252385086079e-01  8.5040580669025190e-01  8.4937563517648462e-01  9.4864423344927618e-01  9.4793349047045650e-01  1.0471430750453479e+00  1.0460548575883362e+00  1.1453605616972684e+00  1.1446097941569366e+00  1.2434697093423071e+00  1.2423255268292632e+00  1.3409129897981800e+00  1.3401234312678665e+00  1.4378816891279869e+00  1.4366838695616972e+00  1.5338054272685258e+00  1.5329784809156148e+00  1.6288945771697914e+00  1.6276457170452818e+00  1.7225687839589932e+00  1.7217060025174276e+00  1.8150580851611695e+00  1.8137610212573303e+00  1.9057749851934964e+00  1.9048780568365944e+00  1.9949695146644342e+00  1.9936272920284190e+00  2.0820497904736426e+00  2.0811205238936643e+00  2.1672859152703818e+00  2.1659017549173902e+00  2.2500842589476582e+00  2.2491245685322547e+00  2.3307348320794934e+00  2.3293120990704614e+00  2.4086447606852039e+00  2.4076566526061352e+00  2.4841235700259587e+00  2.4826657424098943e+00  2.5565814902013604e+00  2.5555670499987131e+00  2.6263469601345673e+00  2.6248575992987280e+00  2.6928354954352227e+00  2.6917968774927550e+00  2.7563936678836032e+00  2.7548763908631582e+00  2.8164442880393148e+00  2.8153837071922387e+00  2.8733511334644133e+00  2.8718095877126055e+00  2.9265461467889406e+00  2.9254658721672180e+00  2.9764092755093685e+00  2.9748471165418375e+00  3.0223832630221517e+00  3.0212856140955204e+00  3.0648631218732643e+00  3.0632839940931915e+00  3.1033039035790031e+00  3.1021912482336189e+00  3.1381145518775555e+00  3.1365220727682361e+00  3.1687637815769167e+00  3.1676385359268369e+00  3.1956733432143301e+00  3.1940710909595240e+00  3.2183268280067883e+00  3.2171914575270502e+00  3.2371577132534695e+00  3.2355492177200480e+00  3.2516655476843495e+00  3.2505225691553896e+00  3.2622945292500116e+00  3.2606832661442078e+00  3.2685611223115680e+00  3.2674131059938119e+00  3.2709193359969508e+00  3.2693087238912977e+00  3.2689033926908349e+00  3.2677529641025793e+00  3.2645357392947791e+00  3.2629763144875295e+00  3.2590691294844412e+00  3.2515406540801255e+00  3.2448870197663342e+00  3.2346216410155981e+00  3.2252378871578045e+00  3.2122565694742411e+00  3.2001650483560167e+00  3.1844947975473068e+00  3.1697238830413768e+00  3.1513977441440040e+00  3.1634115534410654e+00  3.1339818289365398e+00  3.1495492321921175e+00  3.1276976524725475e+00  3.1369619431250242e+00  3.1112025375288632e+00  3.1240155626789448e+00  3.0986762604408287e+00  3.1052046167254597e+00  3.0831105842473638e+00  3.0931795779790341e+00  3.0643982360253088e+00  3.0682102397855378e+00  3.0497686624428408e+00  3.0571099613369732e+00  3.0249402501218583e+00  3.0260614787516054e+00  3.0112514336582423e+00  3.0158873634730132e+00  2.9803909552765284e+00  2.9788529765139642e+00  2.9676455087772187e+00  2.9696043810064428e+00  2.9308509525784956e+00  2.9266913145802489e+00  2.9190494179689992e+00  2.9183655221924347e+00  2.8764327431724062e+00  2.8696949581609466e+00  2.8655735659047208e+00  2.8622871562614929e+00  2.8172606605893487e+00  2.8079941802242487e+00  2.8073401684523502e+00  2.8014974424175545e+00  2.8080102827031390e+00  2.7534707799163569e+00  2.7417309604368083e+00  2.7935754130988846e+00  2.7249002378879679e+00  2.7740374505344993e+00  2.7030176354308639e+00  2.7494253331077245e+00  2.6761341007491906e+00  2.7197960336319578e+00  2.7477097180404808e+00  2.7458085635547587e+00  2.6443124815884689e+00  2.6852184313497656e+00  2.6852107997276020e+00  2.6943060911483481e+00  2.6835344171899305e+00  2.6791129466612689e+00  2.6076274907426371e+00  2.6457732750619303e+00  2.5661656580903678e+00  2.6015531325537551e+00  2.6241474899465524e+00  2.6306386186514437e+00  2.6149644273554760e+00  2.6080794688758440e+00  2.5260211530505723e+00  2.5200252669565297e+00  2.5526623233721919e+00  2.5586851154325374e+00  2.5626183531498130e+00  2.5421612902763817e+00  2.5328754827302031e+00  2.4693162718051380e+00  2.4992168317606311e+00  2.4889791213684287e+00  2.4904065949877632e+00  2.4652977227069641e+00  2.4720269804995234e+00  2.4536794353099696e+00  2.4141601940669206e+00  2.4413441963814377e+00  2.4151961150485306e+00  2.4141757417057299e+00  2.3936192881156697e+00  2.3978439148126269e+00  2.3546899927689338e+00  2.3791833733535657e+00  2.4637443258057368e+00  2.3989240342285183e+00  2.4813058167342943e+00  2.4138632656268735e+00  2.4939857654640680e+00  2.4239642065599316e+00  2.5017531696199184e+00  2.4292018811628404e+00  2.5045889562916126e+00  2.4295632234603248e+00  2.5024859999195854e+00  2.4250470913585720e+00  2.4954491305648325e+00  2.4156642702742932e+00  2.4834951327816071e+00  2.4014374664070517e+00  2.4666527348895815e+00  2.3824012892559669e+00  2.4449625880246049e+00  2.3586022225848096e+00  2.4184772339428040e+00  2.3300985826613703e+00  2.3872610601708306e+00  2.2969604622432094e+00  2.3513902407436187e+00  2.2592696584621921e+00  2.3109526604580970e+00  2.8537892003194729e+00  2.7904954455130637e+00  2.8400990648035416e+00  2.7743595157111041e+00  2.8212481218877330e+00  2.7531269801058107e+00  2.7972797400063190e+00  2.7268471402275374e+00  2.7682492679299844e+00  2.6955812490603770e+00  2.7342240102971047e+00  2.6594024777909069e+00  2.6952831923756384e+00  2.6183958699343886e+00  2.6515179114615499e+00  2.5726582801509008e+00  2.6030310720054244e+00  2.5222982947888921e+00  2.5499373013064477e+00  2.4898547140707050e+00  2.4674361309828128e+00  2.4923628424286211e+00  2.4082035109878555e+00  2.4304454208814170e+00  2.3447435083652874e+00  2.3643340815705338e+00  2.3499356290851963e+00  2.3375136294264056e+00  2.3341090360822130e+00  2.3157075009652801e+00  2.3180126822734608e+00  2.2171195824821752e+00  2.2660478203042120e+00  2.2772103626376325e+00  2.2941889925651493e+00  2.2561198456608196e+00  2.2504002714233331e+00  2.1706151485723884e+00  2.2167867215193091e+00  2.3106157346163099e+00  2.2586004087031184e+00  2.1639524144297750e+00  2.1632917255544801e+00  2.2023612385463216e+00  2.2959522459969901e+00  2.2369833031982580e+00  2.2057692591146543e+00  2.2201812123465787e+00  2.1867155854598130e+00  2.3287497565455579e+00  2.2670715288220133e+00  2.1739520626757498e+00  2.2013588160160076e+00  2.2925511122641167e+00  2.2241893525540264e+00  2.1712132716790014e+00  2.1632534512226687e+00  2.1745201646136394e+00  2.3197903629834067e+00  2.2386611109700079e+00  2.2380552145464030e+00  2.1557581810349529e+00  2.1528376593988159e+00  2.1317740990362006e+00  2.1519951617879656e+00  2.2423866016578762e+00  2.1676272314681979e+00  2.1305960707472966e+00  2.1424924173984068e+00  2.2559052102274100e+00  2.1786309819916094e+00  2.2299151814101310e+00  2.1497668821284690e+00  2.0885498300836298e+00  2.0895103676503708e+00  2.0892655356982672e+00  2.0978113225560509e+00  2.1849788237279095e+00  2.1017632229601992e+00  2.1866549318787816e+00  2.1011113435481747e+00  2.3255044019108659e+00  2.2645540052711350e+00  2.2334630375002513e+00  2.1711545690597163e+00  2.1382594926463829e+00  2.0747195760311961e+00  2.0401265055398214e+00  2.1540311615711576e+00  2.2349466888145639e+00  2.1524009699100630e+00  2.0700952704241717e+00  2.0661087091770636e+00  2.0661920257416919e+00  2.0664968261367260e+00  2.1503879608262961e+00  2.0622281698958584e+00  2.1836552615541951e+00  2.0958575261021428e+00  2.1437329175920268e+00  2.0533969691120619e+00  2.0152708286044820e+00  1.9754859827082287e+00  1.9393056423117270e+00  2.0026146248010641e+00  2.0013005986029828e+00  1.9812788727237656e+00  1.9751114749185199e+00  1.9793980690523156e+00  2.1759875500639794e+00  2.0860153433298478e+00  2.1324526796494481e+00  2.0400258529844670e+00  2.5032399501168801e+00  2.1636713065796056e+00  2.0716100810352347e+00  2.2626985235468711e+00  2.1165758436932047e+00  2.0221491395998936e+00  1.9447070389754002e+00  1.9249256493973399e+00  1.9998127924077624e+00  1.9007864619451966e+00  1.9136218120412432e+00  1.9101103391651928e+00  1.8736992627456162e+00  1.8360467227250394e+00  1.8895306005350119e+00  1.8812662376443037e+00  2.1467377889552921e+00  2.0526787063086203e+00  1.9765998210855755e+00  1.9557659884121228e+00  1.8788765917401251e+00  1.8562404836295276e+00  1.9305566463103170e+00  1.8293359103162423e+00  1.9010374015726716e+00  1.7982337849505918e+00  1.9730743604490018e+00  1.8723524676297099e+00  2.2079721849309504e+00  1.8467335380183170e+00  1.8217945661424586e+00  1.8161679271791054e+00  1.8230652975761867e+00  1.7696128037498180e+00  1.7306071900279323e+00  1.8672852381212133e+00  1.7630162662342486e+00  1.9420029011173028e+00  1.8396980486064047e+00  2.6285118506760101e+00  1.7950807912740467e+00  1.8010312904739356e+00  1.7848083133686503e+00  1.7786847273302360e+00  1.8293884036844428e+00  1.7237766288342957e+00  1.9066788839778459e+00  1.8029088667254631e+00  1.7351680018719524e+00  1.6970329025343098e+00  1.7620817300104110e+00  1.6549871103882647e+00  2.5712923450776799e+00  1.7307508320763816e+00  1.7298600184308657e+00  1.8045860280991777e+00  1.6998172804742941e+00  1.7321438944017620e+00  1.7061274573401579e+00  1.7098378511978531e+00  1.6567261366659887e+00  1.6162669449624678e+00  1.6806191103095298e+00  1.7173244352198120e+00  1.6091431046291629e+00  1.5720214791319813e+00  1.6336587326201364e+00  1.6286751020050088e+00  2.2399674074078875e+00  2.1506610244894904e+00  1.6268418992921154e+00  1.6565604395173714e+00  1.6372111539052363e+00  1.6342429565485124e+00  1.6687555845230562e+00  1.5596239646830263e+00  1.5241092272723447e+00  1.5830210962694145e+00  2.7586118776972710e+00  1.6146336054706465e+00  1.6161827590698132e+00  2.9766248890001390e+00  1.5486826646378855e+00  1.7943384756696228e+00  1.6876729376488997e+00  2.5186547485187294e+00  2.4372005507359673e+00  1.6165043742487080e+00  1.5065631378120425e+00  2.8047356613299717e+00  1.5508777157695719e+00  1.5780324643397641e+00  1.4726600319945300e+00  1.5288421451708036e+00  1.5414151732512451e+00  1.5364585104530284e+00  1.5208343853036874e+00  1.5203060787788363e+00  1.5607103536579512e+00  1.4501041757272108e+00  1.7248588658703936e+00  1.6385052753879108e+00  1.7486843932403462e+00  1.6409246046854531e+00  1.4490453902356384e+00  1.4178138333174133e+00  1.4712679004238702e+00  1.4721246689370699e+00  1.4967655501818580e+00  2.4995335245825721e+00  2.4159013548839940e+00  1.9328372143347228e+00  2.0080836530602273e+00  1.5015231517666232e+00  1.6992051521296470e+00  1.5904873496564278e