<?xml version="1.0"?>
<VTKFile type="UnstructuredGrid"  version="0.1"  >
<UnstructuredGrid>
<Piece  NumberOfPoints="6201" NumberOfCells="12144">
<Points>
<DataArray  type="Float64"  NumberOfComponents="3"  format="ascii">0 1 0  0 -1 0  1 0 0  -1 0 0  -0.02454122852287776 0.999698818696205 0  -0.04906767432734942 0.9987954562051757 0  -0.07356456359955947 0.9972904566786982 0  -0.098017140329409 0.9951847266722118 0  -0.1224106751990381 0.9924795345987319 0  -0.14673047445516 0.9891765099648109 0  -0.1709618887600765 0.9852776423889802 0  -0.1950903220158731 0.9807852804032812 0  -0.2191012401565635 0.9757021300385973 0  -0.2429801799028944 0.9700312531946366 0  -0.2667127574744887 0.9637760657955532 0  -0.2902846772539959 0.9569403357323504 0  -0.3136817403983533 0.9495281805932144 0  -0.3368898533916172 0.9415440651832365 0  -0.3598950365343229 0.9329927988349955 0  -0.3826834323643665 0.9238795325115864 0  -0.4052413140042221 0.914209755703871 0  -0.4275550934294596 0.9039892931238324 0  -0.4496113296537328 0.8932243011959552 0  -0.4713967368250455 0.881921264348864 0  -0.4928981922288082 0.8700869911092642 0  -0.5141027441922073 0.8577286100008801 0  -0.5349976198860099 0.8448535652503956 0  -0.5555702330184784 0.8314696123032962 0  -0.5758081914166656 0.8175848131524146 0  -0.5956993044911779 0.803207531481576 0  -0.6152315905793139 0.788346427627631 0  -0.634393284162254 0.7730104533638789 0  -0.6531728429523989 0.7572088465076731 0  -0.6715589548456731 0.7409511253561784 0  -0.6895405447357167 0.7242470829527524 0  -0.707106781185206 0.7071067811878892 0  -0.7242470829501997 0.6895405447383979 0  -0.7409511253537779 0.6715589548483216 0  -0.7572088465053896 0.6531728429550462 0  -0.7730104533617177 0.6343932841648875 0  -0.7883464276256243 0.6152315905818851 0  -0.8032075314797054 0.5956993044937002 0  -0.8175848131507105 0.5758081914190851 0  -0.8314696123017388 0.5555702330208091 0  -0.844853565248969 0.5349976198882627 0  -0.8577286099996108 0.514102744194325 0  -0.8700869911081144 0.492898192230838 0  -0.8819212643478147 0.4713967368270084 0  -0.8932243011950445 0.449611329655542 0  -0.9039892931230238 0.4275550934311692 0  -0.9142097557031724 0.4052413140057979 0  -0.9238795325109728 0.3826834323658478 0  -0.9329927988344826 0.3598950365356525 0  -0.9415440651828083 0.336889853392814 0  -0.9495281805928644 0.3136817403994129 0  -0.9569403357320729 0.2902846772549104 0  -0.9637760657953238 0.2667127574753179 0  -0.9700312531944527 0.2429801799036284 0  -0.9757021300384615 0.2191012401571683 0  -0.9807852804031804 0.1950903220163801 0  -0.9852776423889043 0.1709618887605145 0  -0.9891765099647555 0.1467304744555333 0  -0.9924795345986914 0.1224106751993664 0  -0.9951847266721815 0.09801714032971656 0  -0.9972904566786818 0.07356456359978128 0  -0.9987954562051686 0.04906767432749375 0  -0.9996988186962037 0.02454122852293202 0  -0.999698818696205 -0.02454122852287776 0  -0.9987954562051757 -0.04906767432734942 0  -0.9972904566786982 -0.07356456359955947 0  -0.9951847266722118 -0.098017140329409 0  -0.9924795345987319 -0.1224106751990381 0  -0.9891765099648109 -0.14673047445516 0  -0.9852776423889802 -0.1709618887600765 0  -0.9807852804032812 -0.1950903220158731 0  -0.9757021300385973 -0.2191012401565635 0  -0.9700312531946366 -0.2429801799028944 0  -0.9637760657955532 -0.2667127574744887 0  -0.9569403357323504 -0.2902846772539959 0  -0.9495281805932144 -0.3136817403983533 0  -0.9415440651832365 -0.3368898533916172 0  -0.9329927988349955 -0.3598950365343229 0  -0.9238795325115864 -0.3826834323643665 0  -0.914209755703871 -0.4052413140042221 0  -0.9039892931238324 -0.4275550934294596 0  -0.8932243011959552 -0.4496113296537328 0  -0.881921264348864 -0.4713967368250455 0  -0.8700869911092642 -0.4928981922288082 0  -0.8577286100008801 -0.5141027441922073 0  -0.8448535652503956 -0.5349976198860099 0  -0.8314696123032962 -0.5555702330184784 0  -0.8175848131524146 -0.5758081914166656 0  -0.803207531481576 -0.5956993044911779 0  -0.788346427627631 -0.6152315905793139 0  -0.7730104533638789 -0.634393284162254 0  -0.7572088465076731 -0.6531728429523989 0  -0.7409511253561784 -0.6715589548456731 0  -0.7242470829527524 -0.6895405447357167 0  -0.7071067811878892 -0.707106781185206 0  -0.6895405447383979 -0.7242470829501997 0  -0.6715589548483216 -0.7409511253537779 0  -0.6531728429550462 -0.7572088465053896 0  -0.6343932841648875 -0.7730104533617177 0  -0.6152315905818851 -0.7883464276256243 0  -0.5956993044937002 -0.8032075314797054 0  -0.5758081914190851 -0.8175848131507105 0  -0.5555702330208091 -0.8314696123017388 0  -0.5349976198882627 -0.844853565248969 0  -0.514102744194325 -0.8577286099996108 0  -0.492898192230838 -0.8700869911081144 0  -0.4713967368270084 -0.8819212643478147 0  -0.449611329655542 -0.8932243011950445 0  -0.4275550934311692 -0.9039892931230238 0  -0.4052413140057979 -0.9142097557031724 0  -0.3826834323658478 -0.9238795325109728 0  -0.3598950365356525 -0.9329927988344826 0  -0.336889853392814 -0.9415440651828083 0  -0.3136817403994129 -0.9495281805928644 0  -0.2902846772549104 -0.9569403357320729 0  -0.2667127574753179 -0.9637760657953238 0  -0.2429801799036284 -0.9700312531944527 0  -0.2191012401571683 -0.9757021300384615 0  -0.1950903220163801 -0.9807852804031804 0  -0.1709618887605145 -0.9852776423889043 0  -0.1467304744555333 -0.9891765099647555 0  -0.1224106751993664 -0.9924795345986914 0  -0.09801714032971656 -0.9951847266721815 0  -0.07356456359978128 -0.9972904566786818 0  -0.04906767432749375 -0.9987954562051686 0  -0.02454122852293202 -0.9996988186962037 0  0.02454122852287776 -0.999698818696205 0  0.04906767432734942 -0.9987954562051757 0  0.07356456359955947 -0.9972904566786982 0  0.098017140329409 -0.9951847266722118 0  0.1224106751990381 -0.9924795345987319 0  0.14673047445516 -0.9891765099648109 0  0.1709618887600765 -0.9852776423889802 0  0.1950903220158731 -0.9807852804032812 0  0.2191012401565635 -0.9757021300385973 0  0.2429801799028944 -0.9700312531946366 0  0.2667127574744887 -0.9637760657955532 0  0.2902846772539959 -0.9569403357323504 0  0.3136817403983533 -0.9495281805932144 0  0.3368898533916172 -0.9415440651832365 0  0.3598950365343229 -0.9329927988349955 0  0.3826834323643665 -0.9238795325115864 0  0.4052413140042221 -0.914209755703871 0  0.4275550934294596 -0.9039892931238324 0  0.4496113296537328 -0.8932243011959552 0  0.4713967368250455 -0.881921264348864 0  0.4928981922288082 -0.8700869911092642 0  0.5141027441922073 -0.8577286100008801 0  0.5349976198860099 -0.8448535652503956 0  0.5555702330184784 -0.8314696123032962 0  0.5758081914166656 -0.8175848131524146 0  0.5956993044911779 -0.803207531481576 0  0.6152315905793139 -0.788346427627631 0  0.634393284162254 -0.7730104533638789 0  0.6531728429523989 -0.7572088465076731 0  0.6715589548456731 -0.7409511253561784 0  0.6895405447357167 -0.7242470829527524 0  0.707106781185206 -0.7071067811878892 0  0.7242470829501997 -0.6895405447383979 0  0.7409511253537779 -0.6715589548483216 0  0.7572088465053896 -0.6531728429550462 0  0.7730104533617177 -0.6343932841648875 0  0.7883464276256243 -0.6152315905818851 0  0.8032075314797054 -0.5956993044937002 0  0.8175848131507105 -0.5758081914190851 0  0.8314696123017388 -0.5555702330208091 0  0.844853565248969 -0.5349976198882627 0  0.8577286099996108 -0.514102744194325 0  0.8700869911081144 -0.492898192230838 0  0.8819212643478147 -0.4713967368270084 0  0.8932243011950445 -0.449611329655542 0  0.9039892931230238 -0.4275550934311692 0  0.9142097557031724 -0.4052413140057979 0  0.9238795325109728 -0.3826834323658478 0  0.9329927988344826 -0.3598950365356525 0  0.9415440651828083 -0.336889853392814 0  0.9495281805928644 -0.3136817403994129 0  0.9569403357320729 -0.2902846772549104 0  0.9637760657953238 -0.2667127574753179 0  0.9700312531944527 -0.2429801799036284 0  0.9757021300384615 -0.2191012401571683 0  0.9807852804031804 -0.1950903220163801 0  0.9852776423889043 -0.1709618887605145 0  0.9891765099647555 -0.1467304744555333 0  0.9924795345986914 -0.1224106751993664 0  0.9951847266721815 -0.09801714032971656 0  0.9972904566786818 -0.07356456359978128 0  0.9987954562051686 -0.04906767432749375 0  0.9996988186962037 -0.02454122852293202 0  0.999698818696205 0.02454122852287776 0  0.9987954562051757 0.04906767432734942 0  0.9972904566786982 0.07356456359955947 0  0.9951847266722118 0.098017140329409 0  0.9924795345987319 0.1224106751990381 0  0.9891765099648109 0.14673047445516 0  0.9852776423889802 0.1709618887600765 0  0.9807852804032812 0.1950903220158731 0  0.9757021300385973 0.2191012401565635 0  0.9700312531946366 0.2429801799028944 0  0.9637760657955532 0.2667127574744887 0  0.9569403357323504 0.2902846772539959 0  0.9495281805932144 0.3136817403983533 0  0.9415440651832365 0.3368898533916172 0  0.9329927988349955 0.3598950365343229 0  0.9238795325115864 0.3826834323643665 0  0.914209755703871 0.4052413140042221 0  0.9039892931238324 0.4275550934294596 0  0.8932243011959552 0.4496113296537328 0  0.881921264348864 0.4713967368250455 0  0.8700869911092642 0.4928981922288082 0  0.8577286100008801 0.5141027441922073 0  0.8448535652503956 0.5349976198860099 0  0.8314696123032962 0.5555702330184784 0  0.8175848131524146 0.5758081914166656 0  0.803207531481576 0.5956993044911779 0  0.788346427627631 0.6152315905793139 0  0.7730104533638789 0.634393284162254 0  0.7572088465076731 0.6531728429523989 0  0.7409511253561784 0.6715589548456731 0  0.7242470829527524 0.6895405447357167 0  0.7071067811878892 0.707106781185206 0  0.6895405447383979 0.7242470829501997 0  0.6715589548483216 0.7409511253537779 0  0.6531728429550462 0.7572088465053896 0  0.6343932841648875 0.7730104533617177 0  0.6152315905818851 0.7883464276256243 0  0.5956993044937002 0.8032075314797054 0  0.5758081914190851 0.8175848131507105 0  0.5555702330208091 0.8314696123017388 0  0.5349976198882627 0.844853565248969 0  0.514102744194325 0.8577286099996108 0  0.492898192230838 0.8700869911081144 0  0.4713967368270084 
[...]
<PointData  Scalars="f_14"> 
<DataArray  type="Float64"  Name="f_14"  format="ascii">0.0000000000000000e+00  0.0000000000000000e+00  0.0000000000000000e+00  0.0000000000000000e+00  0.0000000000000000e+00  0.0000000000000000e+00  0.0000000000000000e+00  0.0000000000000000e+00  0.0000000000000000e+00  0.0000000000000000e+00  0.0000000000000000e+00  0.0000000000000000e+00  0.0000000000000000e+00  0.0000000000000000e+00  0.0000000000000000e+00  0.0000000000000000e+00  0.0000000000000000e+00  0.0000000000000000e+00  0.0000000000000000e+00  0.0000000000000000e+00  0.0000000000000000e+00  0.0000000000000000e+00  0.0000000000000000e+00  0.0000000000000000e+00  0.0000000000000000e+00  0.0000000000000000e+00  0.0000000000000000e+00  0.0000000000000000e+00  0.0000000000000000e+00  0.0000000000000000e+00  0.0000000000000000e+00  0.0000000000000000e+00  0.0000000000000000e+00  0.0000000000000000e+00  0.0000000000000000e+00  0.0000000000000000e+00  0.0000000000000000e+00  0.0000000000000000e+00  0.0000000000000000e+00  0.0000000000000000e+00  0.0000000000000000e+00  0.0000000000000000e+00  0.0000000000000000e+00  0.0000000000000000e+00  0.0000000000000000e+00  0.0000000000000000e+00  0.0000000000000000e+00  0.0000000000000000e+00  0.0000000000000000e+00  0.0000000000000000e+00  0.0000000000000000e+00  0.0000000000000000e+00  0.0000000000000000e+00  0.0000000000000000e+00  0.0000000000000000e+00  0.0000000000000000e+00  0.0000000000000000e+00  0.0000000000000000e+00  0.0000000000000000e+00  0.0000000000000000e+00  0.0000000000000000e+00  0.0000000000000000e+00  0.0000000000000000e+00  0.0000000000000000e+00  0.0000000000000000e+00  0.0000000000000000e+00  0.0000000000000000e+00  0.0000000000000000e+00  0.0000000000000000e+00  0.0000000000000000e+00  0.0000000000000000e+00  0.0000000000000000e+00  0.0000000000000000e+00  0.0000000000000000e+00  0.0000000000000000e+00  0.0000000000000000e+00  0.0000000000000000e+00  0.0000000000000000e+00  0.0000000000000000e+00  0.0000000000000000e+00  0.0000000000000000e+00  0.0000000000000000e+00  0.0000000000000000e+00  0.0000000000000000e+00  0.0000000000000000e+00  0.0000000000000000e+00  0.0000000000000000e+00  0.0000000000000000e+00  0.0000000000000000e+00  0.0000000000000000e+00  0.0000000000000000e+00  0.0000000000000000e+00  0.0000000000000000e+00  0.0000000000000000e+00  0.0000000000000000e+00  0.0000000000000000e+00  0.0000000000000000e+00  0.0000000000000000e+00  0.0000000000000000e+00  0.0000000000000000e+00  0.0000000000000000e+00  0.0000000000000000e+00  0.0000000000000000e+00  0.0000000000000000e+00  0.0000000000000000e+00  0.0000000000000000e+00  0.0000000000000000e+00  0.0000000000000000e+00  0.0000000000000000e+00  0.0000000000000000e+00  0.0000000000000000e+00  0.0000000000000000e+00  0.0000000000000000e+00  0.0000000000000000e+00  0.0000000000000000e+00  0.0000000000000000e+00  0.0000000000000000e+00  0.0000000000000000e+00  0.0000000000000000e+00  0.0000000000000000e+00  0.0000000000000000e+00  0.0000000000000000e+00  0.0000000000000000e+00  0.0000000000000000e+00  0.0000000000000000e+00  0.0000000000000000e+00  0.0000000000000000e+00  0.0000000000000000e+00  0.0000000000000000e+00  0.0000000000000000e+00  0.0000000000000000e+00  0.0000000000000000e+00  0.0000000000000000e+00  0.0000000000000000e+00  0.0000000000000000e+00  0.0000000000000000e+00  0.0000000000000000e+00  0.0000000000000000e+00  0.0000000000000000e+00  0.0000000000000000e+00  0.0000000000000000e+00  0.0000000000000000e+00  0.0000000000000000e+00  0.0000000000000000e+00  0.0000000000000000e+00  0.0000000000000000e+00  0.0000000000000000e+00  0.0000000000000000e+00  0.0000000000000000e+00  0.0000000000000000e+00  0.0000000000000000e+00  0.0000000000000000e+00  0.0000000000000000e+00  0.0000000000000000e+00  0.0000000000000000e+00  0.0000000000000000e+00  0.0000000000000000e+00  0.0000000000000000e+00  0.0000000000000000e+00  0.0000000000000000e+00  0.0000000000000000e+00  0.0000000000000000e+00  0.0000000000000000e+00  0.0000000000000000e+00  0.0000000000000000e+00  0.0000000000000000e+00  0.0000000000000000e+00  0.0000000000000000e+00  0.0000000000000000e+00  0.0000000000000000e+00  0.0000000000000000e+00  0.0000000000000000e+00  0.0000000000000000e+00  0.0000000000000000e+00  0.0000000000000000e+00  0.0000000000000000e+00  0.0000000000000000e+00  0.0000000000000000e+00  0.0000000000000000e+00  0.0000000000000000e+00  0.0000000000000000e+00  0.0000000000000000e+00  0.0000000000000000e+00  0.0000000000000000e+00  0.0000000000000000e+00  0.0000000000000000e+00  0.0000000000000000e+00  0.0000000000000000e+00  0.0000000000000000e+00  0.0000000000000000e+00  0.0000000000000000e+00  0.0000000000000000e+00  0.0000000000000000e+00  0.0000000000000000e+00  0.0000000000000000e+00  0.0000000000000000e+00  0.0000000000000000e+00  0.0000000000000000e+00  0.0000000000000000e+00  0.0000000000000000e+00  0.0000000000000000e+00  0.0000000000000000e+00  0.0000000000000000e+00  0.0000000000000000e+00  0.0000000000000000e+00  0.0000000000000000e+00  0.0000000000000000e+00  0.0000000000000000e+00  0.0000000000000000e+00  0.0000000000000000e+00  0.0000000000000000e+00  0.0000000000000000e+00  0.0000000000000000e+00  0.0000000000000000e+00  0.0000000000000000e+00  0.0000000000000000e+00  0.0000000000000000e+00  0.0000000000000000e+00  0.0000000000000000e+00  0.0000000000000000e+00  0.0000000000000000e+00  0.0000000000000000e+00  0.0000000000000000e+00  0.0000000000000000e+00  0.0000000000000000e+00  0.0000000000000000e+00  0.0000000000000000e+00  0.0000000000000000e+00  0.0000000000000000e+00  0.0000000000000000e+00  0.0000000000000000e+00  0.0000000000000000e+00  0.0000000000000000e+00  0.0000000000000000e+00  0.0000000000000000e+00  0.0000000000000000e+00  0.0000000000000000e+00  0.0000000000000000e+00  0.0000000000000000e+00  0.0000000000000000e+00  0.0000000000000000e+00  0.0000000000000000e+00  0.0000000000000000e+00  0.0000000000000000e+00  0.0000000000000000e+00  0.0000000000000000e+00  0.0000000000000000e+00  0.0000000000000000e+00  0.0000000000000000e+00  0.0000000000000000e+00  0.0000000000000000e+00  0.0000000000000000e+00  0.0000000000000000e+00  0.0000000000000000e+00  0.0000000000000000e+00  0.0000000000000000e+00  1.0256887824233424e-01  1.0751587904075896e-01  1.1771313988845408e-01  1.2199907115588540e-01  1.1755931230417191e-01  1.0790372347562452e-01  1.1788195216545894e-01  1.0978114461169225e-01  1.1977571850187820e-01  1.1424760949479815e-01  1.1269689502909615e-01  1.1881403428755649e-01  1.1777062442669685e-01  1.3761588186545551e-01  1.1797385982659074e-01  1.2583874396228664e-01  1.1439690806396841e-01  1.1770143163669237e-01  1.0615216498978368e-01  1.1404198176105020e-01  1.3200530436190042e-01  1.3070129403641942e-01  1.1663531551719805e-01  1.1189403563332559e-01  1.0966075251061393e-01  1.1319917015575881e-01  1.2365809354414203e-01  9.1245426483114941e-02  1.2287992900661551e-01  1.1766110520531022e-01  1.1774081137327035e-01  1.2626299583665376e-01  1.1566796652331125e-01  1.1674853895904498e-01  1.1388823677967806e-01  1.0947497306542454e-01  1.0526537846018383e-01  1.1941346208401814e-01  1.1362383847743804e-01  1.1969841980421916e-01  1.3258740894618670e-01  1.1479742030154966e-01  1.0999046157538959e-01  1.2150386417363644e-01  1.2042961419366728e-01  1.1620874796955627e-01  1.1227008854633064e-01  1.1787204701012974e-01  1.0510877840015195e-01  1.1623720948876290e-01  1.1690968685527814e-01  1.1785082086465790e-01  1.2092242135921967e-01  1.1384161349796997e-01  1.1330508020644342e-01  1.1779840935389314e-01  1.2067352020816330e-01  1.1161185603835139e-01  1.1249720236259021e-01  1.1259190758502942e-01  1.1433655314538700e-01  1.1614477783030286e-01  1.2096862338065648e-01  1.1910317971246691e-01  1.1453405164955366e-01  1.1774329851454124e-01  1.1818078949563482e-01  1.1789834832016902e-01  1.0939875130138099e-01  1.2377551447163633e-01  1.1271478744246133e-01  1.1813105941276308e-01  1.1013561378084168e-01  1.1658052950098688e-01  1.0751270529603700e-01  1.1871823489165106e-01  1.0716758981358994e-01  1.1877360184348590e-01  1.3686913383628985e-01  1.2135183770154398e-01  1.1387802960790321e-01  1.1156611806514068e-01  1.2067494918362454e-01  1.2636913662080360e-01  1.1190876032562622e-01  1.1411893619968853e-01  1.0874258415525676e-01  1.2679876905178233e-01  1.0261324847838484e-01  1.1782404848315636e-01  1.1577561847285431e-01  1.0928287589153921e-01  1.0707000617178485e-01  1.1773061584745019e-01  1.1406807229277244e-01  1.1163118769283716e-01  1.1787419107446942e-01  1.1109099431925626e-01  1.1426719359391782e-01  1.1784973712893834e-01  1.1836884545486089e-01  1.1056516520830856e-01  1.1902971629700755e-01  1.3102376653224382e-01  1.2160726771394463e-01  1.1769239414251045e-01  1.0813692862196686e-01  1.2817437571749180e-01  1.1785528774217333e-01  1.3094928732048106e-01  1.1529667006647309e-01  1.1707213606977998e-01  1.0569232581419963e-01  1.1119000134690747e-01  1.3491890135394119e-01  1.1518269664177141e-01  1.0815931170767168e-01  1.1767545109677795e-01  1.1255281286103722e-01  1.1812535724713576e-01  1.1784939901153021e-01  1.0613757858878561e-01  1.2158057902751540e-01  1.1406945123691209e-01  1.2029298725234590e-01  1.1792575491789654e-01  1.0572259168152084e-01  1.1718037206683296e-01  1.1775882285586171e-01  2.3756425875370168e-01  2.3677439352444429e-01  3.5861551482365722e-01  3.5810110256735117e-01  4.8171809953397110e-01  4.8081965445853381e-01  6.0639589536209970e-01  6.0520200944894875e-01  7.3218210205406420e-01  7.3136762410660849e-01  8.5915206992828586e-01  8.5788119184978584e-01  9.8657928534756323e-01  9.8570633856137746e-01  1.1146266763992103e+00  1.1132823573965334e+00  1.2425849968398772e+00  1.2416621577082998e+00  1.3706383651978198e+00  1.3692234461163486e+00  1.4980588244161241e+00  1.4970884883772810e+00  1.6250571695497864e+00  1.6235758188391247e+00  1.7508916718733210e+00  1.7498764659674046e+00  1.8758015367457610e+00  1.8742582477110141e+00  1.9990364342845535e+00  1.9979791623937340e+00  2.1208653807230053e+00  2.1192649577650005e+00  2.2405343265291213e+00  2.2394379014346288e+00  2.3583428626539846e+00  2.3566903428235468e+00  2.4735377543608781e+00  2.4724051369878115e+00  2.5864492464352407e+00  2.5847498166480318e+00  2.6963290305803502e+00  2.6951631697330156e+00  2.8035373792975684e+00  2.8017962949074278e+00  2.9073345469443037e+00  2.9061383226896012e+00  3.0081095082625544e+00  3.0063320150313597e+00  3.1051342133352784e+00  3.1039103870729030e+00  3.1988243492847803e+00  3.1970156105241743e+00  3.2884661886718174e+00  3.2872173625130454e+00  3.3744995416657124e+00  3.3726645723266593e+00  3.4562271435186274e+00  3.4549557311263595e+00  3.5341098324298503e+00  3.5322534418195026e+00  3.6074685001274793e+00  3.6061767106370790e+00  3.6767815319114536e+00  3.6749082765070620e+00  3.7413892801207527e+00  3.7400791161533196e+00  3.8017839514683041e+00  3.7998980990042961e+00  3.8573263422699853e+00  3.8559996123673721e+00  3.9085186666288827e+00  3.9066241722805835e+00  3.9547429031779737e+00  3.9534012482567404e+00  3.9965075353978077e+00  3.9946080304884743e+00  4.0332162945617629e+00  4.0318612272430165e+00  4.0653804355953973e+00  4.0634792288291663e+00  4.0924259174037685e+00  4.0910588723619705e+00  4.1148636637121490e+00  4.1129637545038582e+00  4.1321423038772211e+00  4.1307646967095621e+00  4.1447698609406567e+00  4.1428739639887660e+00  4.1522180945574565e+00  4.1508313861468320e+00  4.1549902034906800e+00  4.1531007833426816e+00  4.1525815864496103e+00  4.1511873494071994e+00  4.1474171630007399e+00  4.1454894211244167e+00  4.1408145252325417e+00  4.1318332990605580e+00  4.1238847268618439e+00  4.1116303201317619e+00  4.1004191440591642e+00  4.0849059224373558e+00  4.0704474689412953e+00  4.0516942464600261e+00  4.0340083145628949e+00  4.0120386044971239e+00  4.0264489109350290e+00  3.9911497334435015e+00  4.0098422986647417e+00  3.9836046489981882e+00  3.9947443178322102e+00  3.9638095576518970e+00  3.9792274272922055e+00  3.9487442868655811e+00  3.9566224580817853e+00  3.9300542511199530e+00  3.9422039689896384e+00  3.9075048261145819e+00  3.9121349858120347e+00  3.8899293691608703e+00  3.8988217547951853e+00  3.8599436053855443e+00  3.8613438285728456e+00  3.8434904047728455e+00  3.8491407848136987e+00  3.8061286292615870e+00  3.8043218650083079e+00  3.7908034204105565e+00  3.7932319039205313e+00  3.7461392616673170e+00  3.7411536531148455e+00  3.7319457394078857e+00  3.7311775297863599e+00  3.6800669598812408e+00  3.6719361907379597e+00  3.6670066796415131e+00  3.6630724149086396e+00  3.6080160304051070e+00  3.5967796888436507e+00  3.5960883107166857e+00  3.5890244231978592e+00  3.5968405944234951e+00  3.5301043870176247e+00  3.5158083373691045e+00  3.5792539482203574e+00  3.4952731792165932e+00  3.5554649184155478e+00  3.4685306590555194e+00  3.5254487434087229e+00  3.4356229054435241e+00  3.4892519470804504e+00  3.5231878865140582e+00  3.5207950629574056e+00  3.3966027962404959e+00  3.4469318518083658e+00  3.4464642908124969e+00  3.4575578843046149e+00  3.4444949506782274e+00  3.4390000996357060e+00  3.3515343899901731e+00  3.3985570587506473e+00  3.3004934097115290e+00  3.3442079768954107e+00  3.3713418877410777e+00  3.3792660204756055e+00  3.3601478791330659e+00  3.3516006246864540e+00  3.2508252911295590e+00  3.2435677657291229e+00  3.2839773864073898e+00  3.2905754071803184e+00  3.2953691544521191e+00  3.2703002522285063e+00  3.2587570900684892e+00  3.1808581028063188e+00  3.2179710205478660e+00  3.2043139307200326e+00  3.2060227662307299e+00  3.1751214277040751e+00  3.1835316197642451e+00  3.1606460319196716e+00  3.1124783557820330e+00  3.1463081495093710e+00  3.1127218910612156e+00  3.1113979953993915e+00  3.0861372009034804e+00  3.0914593904815488e+00  3.0385562971662838e+00  3.0691221489088298e+00  3.1741637286731916e+00  3.0937435803056506e+00  3.1959939996642492e+00  3.1123743912051709e+00  3.2117592120222977e+00  3.1249797857864223e+00  3.2214307257319135e+00  3.1315361832180573e+00  3.2249908396196250e+00  3.1320310880206264e+00  3.2224326861423522e+00  3.1264630242765374e+00  3.2137601958516582e+00  3.1148415358580261e+00  3.1989881327406446e+00  3.0971872528221009e+00  3.1781421995763464e+00  3.0735320220952573e+00  3.1512592102341972e+00  3.0439190985832596e+00  3.1183873240266720e+00  3.0084033909361541e+00  3.0795863350988761e+00  2.9670517544129704e+00  3.0349280081889445e+00  2.9199433216638173e+00  2.9844964504582134e+00  3.6527949829697350e+00  3.5756589453356429e+00  3.6361889884464325e+00  3.5560117379023035e+00  3.6132787759620819e+00  3.5301127151572480e+00  3.5840986885429245e+00  3.4980021338447176e+00  3.5486934089087550e+00  3.4597309573744708e+00  3.5071183747274159e+00  3.4153612854592366e+00  3.4594402568566522e+00  3.3649668375905493e+00  3.4057374877706130e+00  3.3086334770802335e+00  3.3461008258053595e+00  3.2464597610143913e+00  3.2806339395889110e+00  3.2062889150822955e+00  3.1785575003865794e+00  3.2094539960699180e+00  3.1050523139135242e+00  3.1326922349414272e+00  3.0260841586072145e+00  3.0504945119827815e+00  3.0329358835033435e+00  3.0159795484306779e+00  3.0116820983571353e+00  2.9904349540001642e+00  2.9919781851635285e+00  2.8671698608134948e+00  2.9283885077180094e+00  2.9418078200855176e+00  2.9630217939149097e+00  2.9142833778106603e+00  2.9070788074224287e+00  2.8088361490170164e+00  2.8667141722438045e+00  2.9840384707941370e+00  2.9190303062109675e+00  2.8005043700229879e+00  2.7995969884972944e+00  2.8485841263212430e+00  2.9656813671301956e+00  2.8919237553899424e+00  2.8523933458477142e+00  2.8704505877773059e+00  2.8284992185938140e+00  3.0065770908976814e+00  2.9295306777647379e+00  2.8128874383443701e+00  2.8472274724356437e+00  2.9613321574609754e+00  2.8757954986434928e+00  2.8078463511484748e+00  2.7978085764019140e+00  2.8120480374237684e+00  2.9942641499903599e+00  2.8928341923644467e+00  2.8921428057147800e+00  2.7889113937326884e+00  2.7853088781133768e+00  2.7598372643793176e+00  2.7852058573572589e+00  2.8985359727215387e+00  2.8047914802191500e+00  2.7580264053113837e+00  2.7729732885761216e+00  2.9154052224413083e+00  2.8185556875334354e+00  2.8826355565283657e+00  2.7821033342027861e+00  2.7039314720541148e+00  2.7051939163057592e+00  2.7062325264559250e+00  2.7169449518931867e+00  2.8264717840994416e+00  2.7218709802567060e+00  2.8285246970233331e+00  2.7210011635157638e+00  3.0021038725748301e+00  2.9260511378290186e+00  2.8870770741916436e+00  2.8090313682937698e+00  2.7676451160112276e+00  2.6877532648115969e+00  2.6440727561374389e+00  2.7866764344963495e+00  2.8889245462740800e+00  2.7853983484226226e+00  2.6811087537338283e+00  2.6760208434518868e+00  2.6769335166950579e+00  2.6773013130698868e+00  2.7828518560565505e+00  2.6719011885192989e+00  2.8247108987677128e+00  2.7143377696185329e+00  2.7744690685309816e+00  2.6607443835873843e+00  2.6127977518301551e+00  2.5624905442410983e+00  2.5166421401599894e+00  2.5955610982143975e+00  2.5939553626022329e+00  2.5689739036561550e+00  2.5611140529257872e+00  2.5673582768064036e+00  2.8150383836115731e+00  2.7018947850412345e+00  2.7602669023834436e+00  2.6438540492063711e+00  3.2234665606133173e+00  2.7995266981459284e+00  2.6836979663716023e+00  2.9237015198428384e+00  2.7402740475591969e+00  2.6212653301851305e+00  2.5233764427012928e+00  2.4982957097162215e+00  2.5930254897948140e+00  2.4676706174050183e+00  2.4829784877876642e+00  2.4785832167885693e+00  2.4335340565985994e+00  2.3856524134007882e+00  2.4527623043699909e+00  2.4422192428064844e+00  2.7782070246053219e+00  2.6597849389201476e+00  2.5637367381048168e+00  2.5373340229500339e+00  2.4399198002122691e+00  2.4111391555308233e+00  2.5053709863644911e+00  2.3769122734494283e+00  2.4679165070210916e+00  2.3373151726087489e+00  2.5591940707181471e+00  2.4315677418298853e+00  2.8550505481814490e+00  2.3991140841978655e+00  2.3664431212266943e+00  2.3593446520034465e+00  2.3680077134616799e+00  2.3011913037369003e+00  2.2514191566358317e+00  2.4250520751945364e+00  2.2924366611352509e+00  2.5198430861589980e+00  2.3900663285328370e+00  3.3774913863899374e+00  2.3327456469066039e+00  2.3403742189352452e+00  2.3196158682864212e+00  2.3125404365226081e+00  2.3768720077112695e+00  2.2423785273620029e+00  2.4750572335729100e+00  2.3432584881273879e+00  2.2569996661067262e+00  2.2083133620416966e+00  2.2912493982174711e+00  2.1545697469649294e+00  3.3074556002445523e+00  2.2504974753211124e+00  2.2493150625405898e+00  2.3457697093828749e+00  2.2122476218794516e+00  2.2535502236990386e+00  2.2194248056388415e+00  2.2242150242078322e+00  2.1567850128528261e+00  2.1050000284387491e+00  2.1872557288274126e+00  2.2341575019946589e+00  2.0958948813830460e+00  2.0483017727054360e+00  2.1271965695023582e+00  2.1209711331245682e+00  2.8939796229208805e+00  2.7819551181211235e+00  2.1190307631836758e+00  2.1570917475501914e+00  2.1310261897950395e+00  2.1271880029766188e+00  2.1721146932006854e+00  2.0324283083890022e+00  1.9868261044333915e+00  2.0623428547953493e+00  3.5368408379275871e+00  2.1025298690367364e+00  2.1045654497593138e+00  3.8015285301495076e+00  2.0184372503612935e+00  2.3325485773255235e+00  2.1965679727059260e+00  3.2411075772010545e+00  3.1401321377377935e+00  2.1052664767003013e+00  1.9643231634157703e+00  3.5932804326145900e+00  2.0217649022245303e+00  2.0566253954717859e+00  1.9207223681172561e+00  1.9928500137308716e+00  2.0083241054736587e+00  2.0019289084839320e+00  1.9823489887421222e+00  1.9817212409130993e+00  2.0337720937151520e+00  1.8917462426949734e+00  2.2437158211033812e+00  2.1333428012005560e+00  2.2743429570493525e+00  2.1367658285844002e+00  1.8904306930551222e+00  1.8501534605817549e+00  1.9188871777623373e+00  1.9206888518078473e+00  1.9523970811768545e+00  3.2173832988923499e+00  3.1136174735128677e+00  2.5081476092876374e+00  2.6033892479469563e+00  1.9578046008376861e+00  2.2111694437736369e+00  2.0721543200694588e