<?xml version="1.0"?>
<VTKFile type="UnstructuredGrid"  version="0.1"  >
<UnstructuredGrid>
<Piece  NumberOfPoints="466" NumberOfCells="866">
<Points>
<DataArray  type="Float64"  NumberOfComponents="3"  format="ascii">0 1 0  0 -1 0  1 0 0  -1 0 0  -0.098017140329409 0.9951847266722118 0  -0.1950903220158731 0.9807852804032812 0  -0.2902846772539959 0.9569403357323504 0  -0.3826834323643665 0.9238795325115864 0  -0.4713967368250455 0.881921264348864 0  -0.5555702330184784 0.8314696123032962 0  -0.634393284162254 0.7730104533638789 0  -0.707106781185206 0.7071067811878892 0  -0.7730104533617177 0.6343932841648875 0  -0.8314696123017388 0.5555702330208091 0  -0.8819212643478147 0.4713967368270084 0  -0.9238795325109728 0.3826834323658478 0  -0.9569403357320729 0.2902846772549104 0  -0.9807852804031804 0.1950903220163801 0  -0.9951847266721815 0.09801714032971656 0  -0.9951847266722118 -0.098017140329409 0  -0.9807852804032812 -0.1950903220158731 0  -0.9569403357323504 -0.2902846772539959 0  -0.9238795325115864 -0.3826834323643665 0  -0.881921264348864 -0.4713967368250455 0  -0.8314696123032962 -0.5555702330184784 0  -0.7730104533638789 -0.634393284162254 0  -0.7071067811878892 -0.707106781185206 0  -0.6343932841648875 -0.7730104533617177 0  -0.5555702330208091 -0.8314696123017388 0  -0.4713967368270084 -0.8819212643478147 0  -0.3826834323658478 -0.9238795325109728 0  -0.2902846772549104 -0.9569403357320729 0  -0.1950903220163801 -0.9807852804031804 0  -0.09801714032971656 -0.9951847266721815 0  0.098017140329409 -0.9951847266722118 0  0.1950903220158731 -0.9807852804032812 0  0.2902846772539959 -0.9569403357323504 0  0.3826834323643665 -0.9238795325115864 0  0.4713967368250455 -0.881921264348864 0  0.5555702330184784 -0.8314696123032962 0  0.634393284162254 -0.7730104533638789 0  0.707106781185206 -0.7071067811878892 0  0.7730104533617177 -0.6343932841648875 0  0.8314696123017388 -0.5555702330208091 0  0.8819212643478147 -0.4713967368270084 0  0.9238795325109728 -0.3826834323658478 0  0.9569403357320729 -0.2902846772549104 0  0.9807852804031804 -0.1950903220163801 0  0.9951847266721815 -0.09801714032971656 0  0.9951847266722118 0.098017140329409 0  0.9807852804032812 0.1950903220158731 0  0.9569403357323504 0.2902846772539959 0  0.9238795325115864 0.3826834323643665 0  0.881921264348864 0.4713967368250455 0  0.8314696123032962 0.5555702330184784 0  0.7730104533638789 0.634393284162254 0  0.7071067811878892 0.707106781185206 0  0.6343932841648875 0.7730104533617177 0  0.5555702330208091 0.8314696123017388 0  0.4713967368270084 0.8819212643478147 0  0.3826834323658478 0.9238795325109728 0  0.2902846772549104 0.9569403357320729 0  0.1950903220163801 0.9807852804031804 0  0.09801714032971656 0.9951847266721815 0  -0.01186900130525657 -0.01089620635370851 0  0.2982088578748932 -0.4020880984647632 0  -0.402088098464767 -0.298208857874896 0  0.4020880984647675 0.2982088578748964 0  -0.2989144428249093 0.4094816582322033 0  0.08810523761796055 0.5789908556044473 0  -0.5715404670897245 0.07983240319640818 0  0.5789908556044481 -0.08810523761796046 0  -0.08526415178250672 -0.5748042211236027 0  0.01689292744504025 -0.2886816776585837 0  0.2780945661581158 -0.1053784434992766 0  -0.2947009376342162 -0.02575089030986918 0  0.1054325592381882 0.2730782026921785 0  0.1918708196516505 -0.6780521242240797 0  -0.6780521242240811 -0.191870819651649 0  0.6814560079604021 0.1961385880143364 0  -0.1961385880143354 0.6814560079604031 0  0.5931582684405763 -0.3804370686186029 0  0.3785436823580675 0.5946269598208211 0  -0.3844998458805591 -0.5918248880162542 0  -0.6036704010283349 0.3800083500638913 0  0.4422021423414857 -0.5958173909871199 0  -0.6041519573410746 -0.4407127615960384 0  0.6041049138801796 0.4480347393833804 0  -0.4480347393833818 0.6041049138801815 0  -0.1609085727676515 0.1919599741784167 0  -0.06848443448152987 0.4420277201625643 0  0.4112832036830996 0.07537730979050787 0  -0.1915208001800198 -0.3716926089680723 0  -0.3959722361784784 0.1889493232445182 0  0.003582273274924264 -0.7859846221137329 0  -0.785984622113733 -0.003582273274922057 0  -0.001549303409316351 0.7796691807504628 0  0.7796691807504623 0.001549303409318581 0  0.7483599000881053 -0.2284093776173293 0  0.2284093776173271 0.748359900088106 0  -0.2276507155094531 -0.7444202784873915 0  -0.738680090544694 0.2297991210938212 0  -0.1379854755494803 -0.1649811057577757 0  0.2056505370148078 0.1026562391274276 0  0.1070578258836103 -0.4869010922327988 0  -0.4694594248422657 -0.0977324357766603 0  0.4348580482346543 -0.2437878782588382 0  0.2455510903804634 0.4300532841171504 0  0.1944843001488472 -0.2636281300651013 0  0.3658600190311663 -0.7631127185387977 0  -0.7631127185387981 -0.3658600190311659 0  -0.3587314929723326 0.7699546937707159 0  0.7699546937707153 0.3587314929723336 0  0.6295469380177375 -0.5643569300252999 0  0.5643569300252997 0.6295469380177375 0  -0.5516191920207925 -0.6299634562754645 0  -0.618773992993516 0.5497024007081733 0  0.08105204854881644 -0.1443523655888112 0  -0.003494264188880151 0.1543379148904416 0  0.1465287280240875 -0.8299180251194084 0  -0.8299180251194095 -0.1465287280240848 0  0.8375010403425986 0.1413118380633884 0  -0.1413118380633867 0.8375010403425993 0  0.7516469890636974 -0.38113173626153 0  0.3811317362615276 0.751646989063699 0  -0.3783407169574537 -0.7604178654159809 0  -0.7640564469599966 0.3754627886790279 0  -0.1815946199372495 0.5109882148253236 0  0.5197065630870978 0.1921932106917817 0  -0.3298310129922154 -0.4333884333351539 0  0.2899630874669553 -0.5553977155574891 0  -0.5599075105039673 -0.2965210267194482 0  0.4491063559825522 -0.440934894060352 0  0.4415577224411737 0.4432890395973248 0  -0.4497225705388248 0.4462855018409865 0  0.2606689672019209 0.2462930702470274 0  -0.3042943422256567 -0.1803649013233861 0  -0.5405888305748676 0.2293167433003758 0  -0.1502936893475129 0.03321328538069313 0  0.598617987097335 0.06366414596327613 0  -0.06366414596327508 0.5986179870973362 0  -0.2346924183972036 -0.5543609714838615 0  -0.4277437675216534 0.05372175196451884 0  -0.05050947178266322 -0.428960997654279 0  0.4251522068257927 -0.07618625387480621 0  0.07618625387480404 0.425152206825794 0  0.0509184761385677 -0.6422336518283231 0  -0.6421565771185107 -0.0509563476699669 0  0.5988023717589204 -0.231929022716379 0  0.2319290227163783 0.5988023717589216 0  -0.1258609133602671 -0.8482124424295399 0  0.8482124424295396 -0.125860913360268 0  -0.8482124424295402 0.1258609133602675 0  0.1258609133602687 0.84821244242954 0  -0.3146562506916397 0.5887368972949161 0  0.5887368972949147 0.3146562506916389 0  -0.4704904799833055 -0.4737390082906218 0  -0.1811961337320194 0.328408638244663 0  -0.2847917769059981 0.1120137269218912 0  0.1430719939688159 -0.02912836955219296 0  -0.05328718662405268 0.2788372089217103 0  -0.4328359221152592 0.3212583107028457 0  0.4844111055076936 -0.7157710153745197 0  -0.7289458317724983 -0.4782096749609141 0  0.6942318773419986 0.4734984014404496 0  -0.4734984014404489 0.6942318773419995 0  -0.1015380830968569 -0.7030117482653939 0  0.6935492030880207 -0.1086198020207829 0  -0.6996928574796533 0.09922602507067403 0  0.1086198020207827 0.693549203088019 0  -0.1041088299992732 -0.2861505298543728 0  0.3092661795231473 0.01315833286270293 0  0.1754252754231554 -0.3831732134412563 0  0.3157506340546885 -0.2791008345567033 0  -0.2885208482867634 0.2648219546947304 0  -0.0141563005456018 -0.1193263653133355 0  -0.2673957229032948 0.8379864548452449 0  -0.8337906051102736 -0.258879016659527 0  0.837986454845245 0.2673957229032972 0  0.2588790166595279 -0.8337906051102731 0  -0.7242821583149768 0.4991363804390895 0  0.4919151471525117 0.7235807480294629 0  -0.4991363804390915 -0.7242821583149759 0  0.7235807480294625 -0.4919151471525131 0  -0.2789149373986052 -0.2949795461392456 0  0.3523918840741773 0.1805217843985834 0  0.07175481570001724 0.1009747067709816 0  0.8444528120997723 -0.2904278222400317 0  0.2904278222400304 0.844452812099773 0  -0.298275554106602 -0.8325128237202211 0  -0.8323420169986804 0.2981817443860041 0  0.03983450504587761 -0.8905184531607661 0  0.8838276503291611 0.04495735009674449 0  -0.8905184531607659 -0.03983450504587517 0  -0.0449573500967432 0.8838276503291614 0  -0.5903175198251169 0.6690573680292646 0  0.6711772862660722 0.5956019707700581 0  -0.6605540668081392 -0.5983054836136423 0  0.5967155120014097 -0.6733751574938805 0  -0.6423974199949705 0.2778025216417409 0  -0.08566655593309079 0.7055611986538083 0  0.7055611986538074 0.08566655593309229 0  -0.2867479827399754 -0.6501420143161767 0  -0.2058932438201954 -0.05800113330133418 0  0.5034074307084128 0.004254361039023657 0  -0.004254361039027612 0.5034074307084114 0  -0.1502026332332071 -0.4804958999305704 0  0.186099591456229 -0.5751180693070636 0  -0.5704680227366756 -0.1894040134664811 0  0.3484299438209147 0.396064415894967 0  0.4965150553060836 -0.3452621353123305 0  0.4981892492475994 0.3523787829914498 0  -0.3523787829914536 0.4981892492476019 0  -0.4818221763314127 -0.374447226139653 0  -0.4106743734050032 -0.1912235168670485 0  0.1925566005336513 0.3262986246966362 0  -0.3703231739298505 -0.08443501019625271 0  0.1408626032195586 0.1642665116307991 0  0.09327345825851699 -0.7306923108518022 0  -0.7306826765130766 -0.09327819219994042 0  0.6719162113828931 -0.3042674415403422 0  0.3040033705904254 0.6713789084434243 0  -0.5101821896584112 -0.0006996545433070982 0  0.3394205098011752 0.4992498131823644 0  0.004954193179052583 -0.5110279086736268 0  0.1515177231442155 0.4893002610211258 0  0.4838869990930135 -0.1538419695597114 0  0.1837969231904983 -0.1543341114078213 0  -0.4767815548555203 0.1474295938975255 0  0.05036771612439594 -0.3978479664969811 0  0.3646229700192675 -0.1612920419201818 0  0.3533163347090244 -0.6470085509665258 0  -0.6470085509665271 -0.353316334709027 0  0.5165862617921771 -0.525919320355951 0  0.525919320355954 0.5165862617921779 0  -0.5068315386278609 0.5285620584726543 
[...]
<PointData  Scalars="f_14"> 
<DataArray  type="Float64"  Name="f_14"  format="ascii">0.0000000000000000e+00  0.0000000000000000e+00  0.0000000000000000e+00  0.0000000000000000e+00  0.0000000000000000e+00  0.0000000000000000e+00  0.0000000000000000e+00  0.0000000000000000e+00  0.0000000000000000e+00  0.0000000000000000e+00  0.0000000000000000e+00  0.0000000000000000e+00  0.0000000000000000e+00  0.0000000000000000e+00  0.0000000000000000e+00  0.0000000000000000e+00  0.0000000000000000e+00  0.0000000000000000e+00  0.0000000000000000e+00  0.0000000000000000e+00  0.0000000000000000e+00  0.0000000000000000e+00  0.0000000000000000e+00  0.0000000000000000e+00  0.0000000000000000e+00  0.0000000000000000e+00  0.0000000000000000e+00  0.0000000000000000e+00  0.0000000000000000e+00  0.0000000000000000e+00  0.0000000000000000e+00  0.0000000000000000e+00  0.0000000000000000e+00  0.0000000000000000e+00  0.0000000000000000e+00  0.0000000000000000e+00  0.0000000000000000e+00  0.0000000000000000e+00  0.0000000000000000e+00  0.0000000000000000e+00  0.0000000000000000e+00  0.0000000000000000e+00  0.0000000000000000e+00  0.0000000000000000e+00  0.0000000000000000e+00  0.0000000000000000e+00  0.0000000000000000e+00  0.0000000000000000e+00  0.0000000000000000e+00  0.0000000000000000e+00  0.0000000000000000e+00  0.0000000000000000e+00  0.0000000000000000e+00  0.0000000000000000e+00  0.0000000000000000e+00  0.0000000000000000e+00  0.0000000000000000e+00  0.0000000000000000e+00  0.0000000000000000e+00  0.0000000000000000e+00  0.0000000000000000e+00  0.0000000000000000e+00  0.0000000000000000e+00  0.0000000000000000e+00  -3.8488782421002182e-05  -1.0808792007368570e-02  1.0793937145869771e-02  1.0798693140977356e-02  -1.0870407701953586e-02  3.5467485409315215e-03  -3.2901707435700239e-03  -3.5655825703956212e-03  3.5224860521704746e-03  -6.2645300309243615e-04  -3.9388281609369401e-03  1.0240263332695180e-03  3.8693979824240259e-03  -5.6806697769108900e-03  5.7095914338151704e-03  5.7921177615417041e-03  -5.8157101256424426e-03  -9.8924810011403290e-03  9.8540618642954519e-03  9.9951470623320243e-03  -9.7593414329991291e-03  -9.5671949509707720e-03  9.4269135941110766e-03  9.3470101751456838e-03  -9.3635693619525603e-03  -4.4046349439223710e-03  -3.1071958608068517e-03  3.3839725459774272e-03  7.8034418226119954e-03  -7.7657068858644164e-03  -5.6720136354187326e-05  8.4029349267224671e-05  -9.3535333797641998e-05  8.1235920629974589e-05  -4.9610353370513555e-03  4.9549961604096245e-03  5.0863992965249740e-03  -5.2329745165374747e-03  3.3612331093381426e-03  3.0465917393127490e-03  -4.7208176240860081e-03  4.3675536025663386e-03  -9.6136113610799656e-03  9.6805424499375511e-03  -6.5701957857813012e-03  -5.2013690921965802e-03  5.1935215330617419e-03  -5.0413166307903441e-03  5.0266582676222167e-03  -6.6388881240391790e-03  6.6215948829568827e-03  6.9320325786184338e-03  -7.3389849186327677e-03  -1.7382260560868579e-03  -1.1407437163901913e-04  -2.2960590942103015e-03  2.3122581970047179e-03  2.1229826357061000e-03  -2.1337594146225440e-03  -5.4263530478572356e-03  5.4226421539275756e-03  5.1660115923850706e-03  -5.0614641978827249e-03  -7.4641538412445951e-03  7.7152153790534580e-03  1.1381666122861232e-02  -9.8006070155174704e-03  9.8330531374518967e-03  -1.1901856430925107e-02  1.1963816309254544e-02  -1.1908222888221352e-02  7.8064523740070070e-03  6.8043363687749162e-03  -8.6434832100649346e-03  -7.9746739475268676e-04  2.5233203398541781e-03  -2.5499865557589364e-03  8.6628587478844200e-03  -2.4207481912691016e-03  2.3132433667796774e-03  -3.4308712045496986e-03  3.4000878574658791e-03  -1.8332188306950414e-03  1.8810014970472707e-03  -7.9440805405390103e-03  7.9382527955503580e-03  1.8114374287100101e-03  -1.7911193341317438e-03  -1.7902177530363819e-03  1.7853344285392910e-03  -9.6346509841069711e-03  9.5948134921466036e-03  1.1578865842287274e-02  -7.0449020597846681e-03  -4.2263476073055063e-03  -6.7442070992790846e-04  -2.0410838501034910e-03  -1.1267319386665283e-02  -5.4611992805007545e-03  5.0952118042987219e-03  6.4138198541395727e-03  -6.4267336161371981e-03  3.0515669414129809e-03  -3.3472148668731820e-03  -2.9774570869076167e-03  3.3349061006639354e-03  3.9793421918649123e-03  4.8477808060215033e-04  -7.2907578039835405e-03  -9.5764424374873997e-03  -8.7808879657718455e-03  2.4249873906904458e-04  -3.0285770053529761e-03  3.1287866448975340e-03  3.0181771887313759e-03  -3.1217427035780728e-03  -4.8997487303516869e-03  5.0712974750910592e-03  4.8932348553201643e-03  -5.0770727836689554e-03  9.1783193983379190e-03  7.2483975562122934e-03  1.0959593397028152e-03  -2.8896473002071790e-03  2.8865822774324841e-03  3.2443854583516616e-03  -3.2403837601470975e-03  -4.0761240591072453e-04  5.1134567908327092e-04  4.2154084850489561e-04  -5.1813761848884218e-04  -4.7087443134622301e-03  4.4829585885974212e-03  4.7742444951226421e-03  -4.3726257001815436e-03  -8.0788031034925468e-03  -2.6121945041985744e-03  2.5932033881237810e-03  8.0583857449404942e-03  1.8109813115644836e-03  2.0082398994617799e-04  -2.2922631936197764e-04  6.5053490963802550e-03  -7.0587689433287953e-03  7.2376345415249878e-03  1.1521018188007071e-02  -1.1303271239951736e-02  1.1323874218178185e-02  -1.1390563876061001e-02  1.1692332373163337e-02  7.9789620030761444e-03  7.3812804530964324e-03  3.7070282752632668e-03  3.4030975594791847e-03  -2.5788596868385879e-03  2.6099785511357609e-03  -7.6913042747215532e-03  7.6980076147859225e-03  5.6951340341726180e-05  1.1228742095842315e-02  -1.9824638975879345e-04  6.4634531093623630e-03  -6.5922147572922618e-03  -4.1261153035733649e-03  -6.3682380111719367e-03  -2.2500828807052787e-03  -6.7039355954272148e-03  -8.5933275977451082e-03  8.5882819510749338e-03  -1.0248244646534380e-02  1.0226924076761998e-02  -1.0309322089273367e-02  -5.7030444021675042e-03  -9.0485688291015269e-03  -1.1577374965025604e-02  -5.7353189547521813e-04  5.5560852703915231e-04  5.5837056570463752e-03  -1.7738383627555112e-03  9.1945457727502444e-04  1.2938753887111053e-03  -1.1244835548690588e-02  -8.4114178573051965e-03  -3.3088027117360694e-03  3.8930620154907711e-03  6.4701963401804664e-03  -1.5537630940670828e-03  1.7739644711961121e-03  1.5510414981816736e-03  -1.7686526176444832e-03  4.5667150613597435e-04  -4.4871511282021408e-04  -4.4531931338659137e-04  4.4481947952555376e-04  4.4769170753388605e-03  -4.4012234108864647e-03  9.6443046190880701e-03  7.7236022723760768e-04  -6.5497423780420533e-03  -5.9055254194721697e-03  5.9165436372384987e-03  5.4201408895662492e-03  -5.4396685027694666e-03  -8.7738251244074607e-03  8.7635355957739539e-03  8.3020290292654397e-03  -8.2614061694991827e-03  -8.4935881108777339e-03  8.4692722395421395e-03  9.6068635306846163e-03  -2.1906297633518634e-03  2.0249602248604585e-03  -2.0253191136351619e-03  2.1843442502030436e-03  3.0627911357346553e-03  -3.1241865759572517e-03  -3.0514962668491967e-03  3.4347743109713149e-03  9.7420007521569416e-03  9.9895343877088368e-03  -7.1672846543217070e-04  -1.1563645712661613e-02  -5.9406683538355629e-03  -4.2661141252281305e-03  -5.7313573291713580e-03  5.7103557773356484e-03  1.0643277328693216e-02  7.5511035024072729e-04  -4.7741126615570050e-03  -8.8610178924328938e-03  -1.0234191690411884e-03  9.1852550660185195e-04  1.0325621165600657e-03  -9.2351924789743189e-04  -2.9607807662243354e-03  2.4746235364543684e-03  2.9584152363177920e-03  -2.4709667588522994e-03  -1.1900127123403381e-02  5.4209471348557207e-04  -4.8162124576377663e-04  -5.4297816124156441e-03  5.4180384601460567e-03  6.6191363915299208e-03  4.0279869083255761e-03  -3.1348417905617963e-03  -9.1053502224567560e-03  -9.8810528639235173e-03  9.9774929539581305e-03  1.1948552162048445e-02  7.8867379087652796e-03  -7.8523102806053995e-03  1.0895522703725506e-02  -1.0890976686815471e-02  -3.1324063694574125e-03  -1.2527106010082731e-03  -2.3682589667971790e-03  6.6498037210410187e-03  1.0162585508046980e-02  -7.6223691525229859e-03  4.4869011626827472e-03  -1.0506391791916923e-02  4.6433820748479678e-03  -2.5792218696540513e-04  -1.7083294858120427e-03  1.9522300736012925e-03  1.7467379089875659e-03  -1.9617052994388103e-03  9.0772211610902920e-03  -1.7827256660753578e-04  -1.1000259502555020e-02  1.2626400290203937e-03  -2.8519368846211157e-03  2.7865076666354015e-03  2.8493407835521131e-03  -2.7913297103024895e-03  -1.4123790055097240e-03  1.4573484665872567e-03  1.4186444513588504e-03  -1.4630213581119814e-03  1.0484423897880318e-02  1.1092470747452510e-02  -1.1113867573713304e-02  -2.9081075251243134e-03  3.0487584278848750e-03  2.8687809234600285e-03  -2.8716387811829691e-03  -9.4484918318467493e-03  3.7241534532044341e-03  -3.7417367372171960e-03  -1.7514852838234635e-03  1.7381578759514407e-03  7.9128806459923175e-03  6.0587636627981722e-03  -6.0626817467528430e-03  -7.7980986861078761e-03  7.8736486590939916e-03  -7.9968054869845942e-03  1.6801361533599023e-04  4.1938144761811697e-03  -4.1745777175646410e-03  7.7534521795895551e-03  -7.7633436160685016e-03  -1.2945061121487384e-03  1.3161101598959039e-03  -5.2034263738106688e-03  5.1993889575932192e-03  5.1001921185482328e-03  5.7223503294624861e-03  9.1692310131479167e-03  9.2359396504654041e-03  -4.7159007857609878e-03  -1.0303771736629238e-02  3.6731443878451906e-03  -7.5456670179058979e-03  7.5179483665774871e-03  1.0176025929227108e-02  -8.0502708620387303e-03  8.0453150886805064e-03  1.1610773154700951e-02  -1.5198986693799846e-03  1.1703738021015068e-02  -4.0874897884887983e-03  1.6289102720184773e-03  -2.8634169076376041e-03  9.6226094696284514e-03  -9.8227372167833879e-03  -2.6696917499736779e-03  2.6734527058444417e-03  2.9552011855832304e-03  -2.9667114444514825e-03  -1.1755879668748451e-02  4.6175380286254805e-03  6.9359345170438916e-03  1.3139893212444605e-03  -7.8996209398220359e-04  8.0833454398694150e-04  -8.0043963580890261e-04  7.8747682416235095e-04  -4.0883582513725775e-04  -3.2471239776539349e-04  -7.4926637961683622e-03  7.4914823726389829e-03  3.5733765173813937e-04  -4.2467919213141905e-03  4.4095538814315910e-03  -9.5577262940087383e-03  -4.0660755458324393e-04  3.8273252617704794e-04  6.1972957560555491e-03  -6.0829470375511644e-03  -3.0700394724062207e-04  -3.1475013776202832e-03  3.1210200313638316e-03  3.4270095419776775e-03  6.1391810426559088e-03  -6.1461736985103993e-03  -3.0744765493905283e-03  3.0890780380449885e-03  3.0690811775855148e-03  -3.1436548134357190e-03  -3.3279608647887641e-03  -9.2702183732274283e-03  -1.0319602248495425e-02  1.0286751059468222e-02  1.0942430288013210e-02  1.7417776449307927e-03  -6.9687896923428258e-03  9.0757378672335944e-03  1.0913910934470094e-02  -2.0375138765701211e-03  1.9755193669261919e-03  2.0312723941296839e-03  -1.9743368118318866e-03  -3.0835681472615836e-03  3.0516751199240687e-03  2.8536366047052916e-03  -3.0533988324212852e-03  7.1878797944902699e-03  -6.7095474324227033e-04  7.0170179300909307e-04  6.9431694798628566e-04  -7.0950149350318035e-04  -9.6173361350682031e-04  -7.2067392870436564e-03  -1.0833671834900038e-02  -3.3651097830036227e-03  3.3518027587586502e-03  -6.7104188581959311e-03  6.1912487395182651e-03  3.5420866316939834e-03  -3.6047287961390824e-03  -3.5457262975562439e-03  3.5965626818184157e-03  -2.2277330879036279e-03  -1.9184043097602702e-03  -5.8239606570099399e-03  2.7046884955161227e-03  -2.3222726219476169e-03  -6.7478786471694054e-03  6.7032927676185976e-03  1.6199991125763976e-04  </DataArray> 
</PointData> 
</Piece>
</UnstructuredGrid>
</VTKFile>